LAMMPS (2 Aug 2023 - Update 1)
  using 2 OpenMP thread(s) per MPI task
Loaded 1 plugins from /home/ch24d003/.conda/envs/deepmd_gpu/lib/deepmd_lmp
plugin load     libdeepmd_lmp.so

units           metal

boundary        p p p

atom_style      atomic

neighbor        2.0 bin

neigh_modify    every 10 delay 0 check no

read_data       /scratch/ch24d003/ActiveLearning_Pt/bulk/bulk.lmp
Reading data file ...
  orthogonal box = (0 0 0) to (7.8948334 7.8700436 8.0146928)
  1 by 1 by 1 MPI processor grid
  reading atoms ...
  32 atoms
  read_data CPU = 0.002 seconds

mass            1 195.084

pair_style deepmd /scratch/ch24d003/ActiveLearning_Pt/DP_models/1/graph1.pb /scratch/ch24d003/ActiveLearning_Pt/DP_models/2/graph2.pb /scratch/ch24d003/ActiveLearning_Pt/DP_models/3/graph3.pb out_file md.out out_freq 100
Summary of lammps deepmd module ...
  >>> Info of deepmd-kit:
  installed to:       /home/ch24d003/.conda/envs/deepmd_gpu
  source:             v2.2.9
  source branch:      HEAD
  source commit:      be437483
  source commit at:   2024-02-04 13:44:12 +0800
  support model ver.: 1.1 
  build variant:      cuda
  build with tf inc:  /home/ch24d003/.conda/envs/deepmd_gpu/include;/home/ch24d003/.conda/envs/deepmd_gpu/include
  build with tf lib:  /home/ch24d003/.conda/envs/deepmd_gpu/lib/libtensorflow_cc.so
  set tf intra_op_parallelism_threads: 0
  set tf inter_op_parallelism_threads: 0
  >>> Info of lammps module:
  use deepmd-kit at:  /home/ch24d003/.conda/envs/deepmd_gpu
pair_coeff      * *

velocity        all create 800 12345678

fix             1 all nvt temp 800 800 0.1

timestep        0.0005

thermo_style    custom step pe ke etotal temp press vol

thermo          100

dump            1 all dcd 100 bulk.dcd

timer timeout   03:00:00 every 100
New timer settings: style=normal  mode=nosync  timeout=03:00:00

run             200000

CITE-CITE-CITE-CITE-CITE-CITE-CITE-CITE-CITE-CITE-CITE-CITE-CITE

Your simulation uses code contributions which should be cited:

- USER-DEEPMD package:

@article{Wang_ComputPhysCommun_2018_v228_p178,
  author = {Wang, Han and Zhang, Linfeng and Han, Jiequn and E, Weinan},
  doi = {10.1016/j.cpc.2018.03.016},
  url = {https://doi.org/10.1016/j.cpc.2018.03.016},
  year = 2018,
  month = {jul},
  publisher = {Elsevier {BV}},
  volume = 228,
  journal = {Comput. Phys. Commun.},
  title = {{DeePMD-kit: A deep learning package for many-body potential energy representation and molecular dynamics}},
  pages = {178--184}
}
@misc{Zeng_JChemPhys_2023_v159_p054801,
  title  = {{DeePMD-kit v2: A software package for deep potential models}},
  author =   {Jinzhe Zeng and Duo Zhang and Denghui Lu and Pinghui Mo and Zeyu Li
         and Yixiao Chen and Mari{\'a}n Rynik and Li'ang Huang and Ziyao Li and 
         Shaochen Shi and Yingze Wang and Haotian Ye and Ping Tuo and Jiabin
         Yang and Ye Ding and Yifan Li and Davide Tisi and Qiyu Zeng and Han 
         Bao and Yu Xia and Jiameng Huang and Koki Muraoka and Yibo Wang and 
         Junhan Chang and Fengbo Yuan and Sigbj{\o}rn L{\o}land Bore and Chun
         Cai and Yinnian Lin and Bo Wang and Jiayan Xu and Jia-Xin Zhu and 
         Chenxing Luo and Yuzhi Zhang and Rhys E A Goodall and Wenshuo Liang
         and Anurag Kumar Singh and Sikai Yao and Jingchao Zhang and Renata
         Wentzcovitch and Jiequn Han and Jie Liu and Weile Jia and Darrin M
         York and Weinan E and Roberto Car and Linfeng Zhang and Han Wang},
  journal =  {J. Chem. Phys.},
  volume =   159,
  issue =    5,  
  year =    2023,
  pages  =   054801,
  doi =      {10.1063/5.0155600},
}

CITE-CITE-CITE-CITE-CITE-CITE-CITE-CITE-CITE-CITE-CITE-CITE-CITE

Generated 0 of 0 mixed pair_coeff terms from geometric mixing rule
Neighbor list info ...
  update: every = 10 steps, delay = 0 steps, check = no
  max neighbors/atom: 2000, page size: 100000
  master list distance cutoff = 8
  ghost atom cutoff = 8
  binsize = 4, bins = 2 2 3
  1 neighbor lists, perpetual/occasional/extra = 1 0 0
  (1) pair deepmd, perpetual
      attributes: full, newton on
      pair build: full/bin/atomonly
      stencil: full/bin/3d
      bin: standard
Per MPI rank memory allocation (min/avg/max) = 3.499 | 3.499 | 3.499 Mbytes
   Step         PotEng         KinEng         TotEng          Temp          Press          Volume    
         0  -105632.03      3.2056516     -105628.82      800            26637.77       497.97437    
       100  -105629.75      0.99298313    -105628.75      247.80812      50335.453      497.97437    
       200  -105629.83      1.3555989     -105628.48      338.30223      55470.952      497.97437    
       300  -105629.7       1.5882372     -105628.12      396.35928      53386.504      497.97437    
       400  -105630.3       2.6946663     -105627.61      672.47891      49938.771      497.97437    
       500  -105629.82      2.8478428     -105626.97      710.70549      53995.251      497.97437    
       600  -105628.61      2.1331971     -105626.48      532.35907      57706.682      497.97437    
       700  -105628.43      2.5478975     -105625.88      635.85138      59922.315      497.97437    
       800  -105628.64      3.4152664     -105625.23      852.31131      66270.827      497.97437    
       900  -105628.19      3.4335063     -105624.76      856.86324      67361.921      497.97437    
      1000  -105628.47      3.9903325     -105624.48      995.82438      62298.728      497.97437    
      1100  -105627.73      3.1613335     -105624.57      788.94         65240.902      497.97437    
      1200  -105627.54      2.8759748     -105624.67      717.7261       70355.829      497.97437    
      1300  -105628.23      3.5756224     -105624.66      892.32963      70808.654      497.97437    
      1400  -105629         4.0890905     -105624.92      1020.4704      59961.269      497.97437    
      1500  -105627.98      2.5345374     -105625.45      632.51723      68524.688      497.97437    
      1600  -105628.61      2.9518083     -105625.66      736.65106      65608.803      497.97437    
      1700  -105628.72      2.9951793     -105625.72      747.4747       62070.576      497.97437    
      1800  -105629.14      3.408656      -105625.73      850.66162      55523.824      497.97437    
      1900  -105628.44      2.6518373     -105625.79      661.79051      61080.411      497.97437    
      2000  -105628.37      2.7598244     -105625.61      688.73969      63170.7        497.97437    
      2100  -105629.2       4.2578945     -105624.94      1062.597       63210.067      497.97437    
      2200  -105627.82      3.1924131     -105624.63      796.69622      63204.49       497.97437    
      2300  -105627.26      2.8287547     -105624.43      705.94188      69916.589      497.97437    
      2400  -105627.91      3.9288514     -105623.98      980.48119      69122.146      497.97437    
      2500  -105627.5       3.751669      -105623.75      936.2637       77312.421      497.97437    
      2600  -105627.98      4.0584933     -105623.93      1012.8345      67430.02       497.97437    
      2700  -105627.87      2.9653442     -105624.91      740.02907      68325.994      497.97437    
      2800  -105628.28      2.8587769     -105625.42      713.43422      63136.009      497.97437    
      2900  -105628.96      3.3721045     -105625.59      841.53987      62938.645      497.97437    
      3000  -105628.78      3.0399032     -105625.74      758.63594      62758.428      497.97437    
      3100  -105628.58      2.7794113     -105625.8       693.6278       59786.06       497.97437    
      3200  -105628.88      3.1975559     -105625.69      797.97965      59302.783      497.97437    
      3300  -105628.29      2.8286125     -105625.46      705.9064       62113.829      497.97437    
      3400  -105628.18      3.1599258     -105625.02      788.58871      62225.397      497.97437    
      3500  -105628.33      3.9166903     -105624.42      977.44629      62556.025      497.97437    
      3600  -105628.02      3.7321526     -105624.28      931.3932       71155.973      497.97437    
      3700  -105627.47      3.0475173     -105624.42      760.53613      72732.255      497.97437    
      3800  -105627.66      3.1668591     -105624.5       790.31899      71240.102      497.97437    
      3900  -105627.96      3.4124845     -105624.55      851.61706      67315.78       497.97437    
      4000  -105628.53      3.7209245     -105624.81      928.59113      65535.191      497.97437    
      4100  -105628.23      2.6616839     -105625.57      664.24783      65511.71       497.97437    
      4200  -105629.33      3.1376974     -105626.19      783.0414       59955.963      497.97437    
      4300  -105629         2.5963302     -105626.4       647.93822      60449.552      497.97437    
      4400  -105628.68      2.3772549     -105626.3       593.26595      59360.877      497.97437    
      4500  -105629.22      3.2965261     -105625.92      822.67858      59806.313      497.97437    
      4600  -105628.69      3.1200369     -105625.57      778.63406      63964.904      497.97437    
      4700  -105628.07      2.8011422     -105625.27      699.05095      71222.894      497.97437    
      4800  -105628.13      3.2588075     -105624.87      813.26556      66083.832      497.97437    
      4900  -105627.67      3.1077591     -105624.56      775.57001      66283.046      497.97437    
      5000  -105628.64      4.3016414     -105624.34      1073.5144      74774.22       497.97437    
      5100  -105628.05      3.4389026     -105624.61      858.20994      71188.669      497.97437    
      5200  -105627.6       2.7182181     -105624.88      678.35645      75213.842      497.97437    
      5300  -105628.01      3.1110594     -105624.9       776.39364      71654.956      497.97437    
      5400  -105628.75      3.8296479     -105624.92      955.72404      69655.078      497.97437    
      5500  -105628.13      3.0373264     -105625.09      757.99288      69578.168      497.97437    
      5600  -105628.49      3.3448763     -105625.15      834.74482      65381.238      497.97437    
      5700  -105628.3       3.089059      -105625.21      770.90325      69440.667      497.97437    
      5800  -105628.16      2.9690122     -105625.19      740.94445      67223.217      497.97437    
      5900  -105628.9       3.7814826     -105625.11      943.70394      68957.908      497.97437    
      6000  -105628.36      3.0842986     -105625.27      769.71524      69167.565      497.97437    
      6100  -105628.4       2.899979      -105625.5       723.71659      67118.001      497.97437    
      6200  -105628.42      2.61672       -105625.81      653.02669      67763.527      497.97437    
      6300  -105628.91      2.8345429     -105626.08      707.38639      62073.62       497.97437    
      6400  -105629.29      2.9169596     -105626.37      727.95424      62760.652      497.97437    
      6500  -105629.04      2.4743075     -105626.57      617.48631      57492.862      497.97437    
      6600  -105629         2.5051892     -105626.49      625.19313      63942.357      497.97437    
      6700  -105629.21      3.1812479     -105626.03      793.90982      63385.173      497.97437    
      6800  -105628.54      3.1116504     -105625.43      776.54112      66898.586      497.97437    
      6900  -105627.92      2.8444311     -105625.07      709.85409      63166.385      497.97437    
      7000  -105628.01      3.2317009     -105624.78      806.50084      65960.506      497.97437    
      7100  -105628.41      3.789659      -105624.62      945.74446      66887.763      497.97437    
      7200  -105628.39      3.6110834     -105624.77      901.17925      69823.418      497.97437    
      7300  -105627.82      2.7732888     -105625.05      692.09986      68970.241      497.97437    
      7400  -105627.91      2.7944712     -105625.12      697.38613      63794.137      497.97437    
      7500  -105629.13      4.0684087     -105625.06      1015.309       60077.132      497.97437    
      7600  -105628.38      2.9347158     -105625.44      732.38545      59909.339      497.97437    
      7700  -105628.64      2.6336387     -105626.01      657.24889      60968.719      497.97437    
      7800  -105629.08      2.6700402     -105626.41      666.33323      56295.476      497.97437    
      7900  -105629.53      2.9882147     -105626.54      745.73662      61382.56       497.97437    
      8000  -105629.06      2.5501347     -105626.51      636.40968      61877.939      497.97437    
      8100  -105629.02      2.7831898     -105626.24      694.57076      60720.231      497.97437    
      8200  -105628.39      2.6548509     -105625.73      662.54259      63878.245      497.97437    
      8300  -105628.57      3.2742669     -105625.29      817.12357      66282.002      497.97437    
      8400  -105627.81      2.6743938     -105625.14      667.41971      72196.722      497.97437    
      8500  -105628.52      3.5957216     -105624.92      897.34558      68158.729      497.97437    
      8600  -105628.9       4.0078981     -105624.89      1000.208       59023.034      497.97437    
      8700  -105627.43      2.2764516     -105625.15      568.10955      64242.498      497.97437    
      8800  -105628.77      3.6435166     -105625.12      909.27326      61058.451      497.97437    
      8900  -105629.23      3.9146032     -105625.32      976.92544      59488.609      497.97437    
      9000  -105627.98      2.205652      -105625.78      550.44086      65334.845      497.97437    
      9100  -105628.75      2.8537269     -105625.9       712.17393      64831.94       497.97437    
      9200  -105628.88      3.0226299     -105625.85      754.32525      65086.662      497.97437    
      9300  -105628.9       3.2618449     -105625.64      814.02356      64839.098      497.97437    
      9400  -105628.29      3.1663857     -105625.12      790.20082      64702.21       497.97437    
      9500  -105627.85      3.4389899     -105624.42      858.23172      66657.093      497.97437    
      9600  -105627.49      3.526718      -105623.96      880.12508      62256.411      497.97437    
      9700  -105627.54      3.7040155     -105623.84      924.37132      67188.7        497.97437    
      9800  -105627.42      3.4655188     -105623.96      864.85225      74637.293      497.97437    
      9900  -105627.6       3.3612692     -105624.24      838.83582      70012.328      497.97437    
     10000  -105628.29      3.6332254     -105624.66      906.70499      62347.131      497.97437    
     10100  -105628.42      3.1419503     -105625.28      784.10275      59679.156      497.97437    
     10200  -105628.38      2.8287823     -105625.56      705.94878      63776.986      497.97437    
     10300  -105628.59      3.0134943     -105625.57      752.04538      64486.635      497.97437    
     10400  -105628.84      3.3240705     -105625.52      829.55252      64236.771      497.97437    
     10500  -105628.6       3.0896475     -105625.51      771.05011      63166.624      497.97437    
     10600  -105628.07      2.636571      -105625.44      657.98068      68559.503      497.97437    
     10700  -105628.27      3.1688616     -105625.1       790.81873      70161.748      497.97437    
     10800  -105628.18      3.5787537     -105624.61      893.11107      68753.285      497.97437    
     10900  -105628.07      3.8153859     -105624.25      952.16483      67577.105      497.97437    
     11000  -105627.86      3.6340274     -105624.22      906.90514      64462.824      497.97437    
     11100  -105628.25      3.6598265     -105624.59      913.34356      66288.971      497.97437    
     11200  -105627.88      2.4471661     -105625.43      610.71294      66933.853      497.97437    
     11300  -105628.62      2.8242967     -105625.8       704.82937      67613.021      497.97437    
     11400  -105628.85      3.0118732     -105625.84      751.6408       62505.235      497.97437    
     11500  -105629.35      3.5309718     -105625.82      881.18667      61537.754      497.97437    
     11600  -105628.48      2.5976731     -105625.88      648.27334      59577.413      497.97437    
     11700  -105628.44      2.7136853     -105625.73      677.22526      61615.384      497.97437    
     11800  -105628.72      3.4624933     -105625.25      864.09722      67349.424      497.97437    
     11900  -105628.12      3.2924852     -105624.83      821.67012      72171.092      497.97437    
     12000  -105627.99      3.4428805     -105624.55      859.20266      75134.311      497.97437    
     12100  -105627.69      3.2816929     -105624.41      818.9768       69519.524      497.97437    
     12200  -105627.93      3.5806672     -105624.35      893.58862      71227.611      497.97437    
     12300  -105628.12      3.606011      -105624.52      899.9134       72655.614      497.97437    
     12400  -105627.93      3.03313       -105624.9       756.94565      69224.882      497.97437    
     12500  -105628.46      2.9145994     -105625.55      727.36524      67153.481      497.97437    
     12600  -105629.33      2.888016      -105626.44      720.7311       53203.35       497.97437    
     12700  -105629.47      2.777719      -105626.69      693.20545      59404.679      497.97437    
     12800  -105629.16      2.5340459     -105626.63      632.3946       58788.898      497.97437    
     12900  -105628.97      2.6382179     -105626.33      658.39168      59817.14       497.97437    
     13000  -105628.45      2.5757367     -105625.88      642.79891      61943.287      497.97437    
     13100  -105629.09      3.7565727     -105625.33      937.48745      63896.47       497.97437    
     13200  -105628.17      3.0582007     -105625.11      763.20226      69367.022      497.97437    
     13300  -105628.04      3.0992415     -105624.94      773.44439      61382.403      497.97437    
     13400  -105627.98      3.2926679     -105624.69      821.71572      67488.548      497.97437    
     13500  -105628.12      3.6781867     -105624.44      917.92551      69539.359      497.97437    
     13600  -105628.14      3.7617517     -105624.38      938.77991      73536.131      497.97437    
     13700  -105627.81      3.1344405     -105624.68      782.2286       70553.985      497.97437    
     13800  -105627.81      2.7144139     -105625.09      677.40709      66698.059      497.97437    
     13900  -105628.82      3.2728098     -105625.55      816.75995      63510.764      497.97437    
     14000  -105629.22      3.1608296     -105626.06      788.81425      63454.677      497.97437    
     14100  -105629.24      2.8048462     -105626.44      699.97531      58635.17       497.97437    
     14200  -105628.62      2.1343509     -105626.49      532.64701      63573.367      497.97437    
     14300  -105629.13      2.8865023     -105626.25      720.35335      63469.231      497.97437    
     14400  -105628.9       2.9151631     -105625.98      727.50591      64246.774      497.97437    
     14500  -105628.65      2.8876257     -105625.77      720.63369      62964.509      497.97437    
     14600  -105628.48      2.9769419     -105625.5       742.92338      62414.273      497.97437    
     14700  -105628.4       3.1952917     -105625.21      797.4146       71163.447      497.97437    
     14800  -105627.93      2.9790171     -105624.95      743.44126      74883.404      497.97437    
     14900  -105628.34      3.6400631     -105624.7       908.4114       77350.928      497.97437    
     15000  -105627.76      3.1423936     -105624.61      784.21338      72115.099      497.97437    
     15100  -105627.71      3.1721161     -105624.54      791.6309       64805.185      497.97437    
     15200  -105628.02      3.6347653     -105624.39      907.0893       67360.068      497.97437    
     15300  -105628.35      4.0012136     -105624.34      998.53986      73332.828      497.97437    
     15400  -105627.75      3.0110872     -105624.74      751.44465      74185.744      497.97437    
     15500  -105628.3       3.1132024     -105625.18      776.92846      70138.927      497.97437    
     15600  -105628.42      2.8706964     -105625.55      716.40882      68588.084      497.97437    
     15700  -105629.02      3.2422322     -105625.77      809.12904      71270.304      497.97437    
     15800  -105629.06      3.0399086     -105626.02      758.63729      61628.101      497.97437    
     15900  -105628.51      2.3540817     -105626.16      587.48287      62578.537      497.97437    
     16000  -105628.66      2.6825066     -105625.98      669.44432      66856.491      497.97437    
     16100  -105629.14      3.7574843     -105625.38      937.71497      65092.195      497.97437    
     16200  -105628.62      3.6553179     -105624.97      912.21838      68441.208      497.97437    
     16300  -105627.68      2.8024949     -105624.87      699.38851      72020.662      497.97437    
     16400  -105627.48      2.7998156     -105624.68      698.71989      73997.057      497.97437    
     16500  -105627.72      3.3721022     -105624.34      841.5393       70187.359      497.97437    
     16600  -105628.23      4.0240442     -105624.2       1004.2374      67937.343      497.97437    
     16700  -105628.53      4.0719313     -105624.45      1016.1881      65073.557      497.97437    
     16800  -105627.82      3.0123442     -105624.81      751.75836      66619.274      497.97437    
     16900  -105627.6       2.6983636     -105624.9       673.40159      68997.973      497.97437    
     17000  -105628.63      3.8058239     -105624.83      949.77854      65346.473      497.97437    
     17100  -105628.59      3.5789665     -105625.01      893.1642       63940.619      497.97437    
     17200  -105628.64      3.1711228     -105625.47      791.38302      60778.511      497.97437    
     17300  -105628.25      2.4308693     -105625.82      606.64592      65563.333      497.97437    
     17400  -105628.91      3.0401113     -105625.87      758.68789      63667.016      497.97437    
     17500  -105628.64      2.8418834     -105625.79      709.21829      64028.956      497.97437    
     17600  -105628.86      3.4000536     -105625.46      848.51481      60303.874      497.97437    
     17700  -105628.42      3.7582911     -105624.66      937.91629      66861.328      497.97437    
     17800  -105627.36      3.338762      -105624.02      833.21894      68531.263      497.97437    
     17900  -105627.01      3.3386651     -105623.67      833.19476      73343.373      497.97437    
     18000  -105627.33      3.7786165     -105623.55      942.9887       71368.495      497.97437    
     18100  -105627.67      3.9239818     -105623.75      979.26594      69989.328      497.97437    
     18200  -105627.62      3.4672883     -105624.16      865.29386      65595.323      497.97437    
     18300  -105628.25      3.7391436     -105624.51      933.13786      69486.281      497.97437    
     18400  -105628.47      3.5684572     -105624.9       890.54151      68515.999      497.97437    
     18500  -105628.45      3.1870122     -105625.26      795.34837      62118.73       497.97437    
     18600  -105627.94      2.5451117     -105625.4       635.15617      62506.978      497.97437    
     18700  -105628.95      3.6420283     -105625.3       908.90185      59845.538      497.97437    
     18800  -105628.25      2.9334081     -105625.32      732.05912      63198.367      497.97437    
     18900  -105628.6       3.337125      -105625.27      832.8104       65154.836      497.97437    
     19000  -105628.36      3.1599912     -105625.2       788.60502      65051.966      497.97437    
     19100  -105627.72      2.6874744     -105625.03      670.68408      69592.394      497.97437    
     19200  -105628.29      3.8494263     -105624.44      960.65993      70349.405      497.97437    
     19300  -105627.79      3.7942846     -105623.99      946.89882      73897.904      497.97437    
     19400  -105627.48      3.5219781     -105623.95      878.9422       70552.982      497.97437    
     19500  -105627.41      3.316294      -105624.09      827.61182      67447.454      497.97437    
     19600  -105628.69      4.1544802     -105624.54      1036.789       65556.283      497.97437    
     19700  -105627.79      2.5541799     -105625.24      637.4192       66379.925      497.97437    
     19800  -105628.94      3.4662035     -105625.47      865.02313      61672.376      497.97437    
     19900  -105628.67      2.9936207     -105625.68      747.08574      62916.776      497.97437    
     20000  -105628.9       3.1544267     -105625.74      787.21636      61006.765      497.97437    
     20100  -105628.56      2.8195398     -105625.74      703.64223      65454.034      497.97437    
     20200  -105628.21      2.6250151     -105625.59      655.09679      63622.496      497.97437    
     20300  -105628.54      3.4551038     -105625.09      862.2531       61544.851      497.97437    
     20400  -105628.56      3.9719576     -105624.59      991.23875      66527.05       497.97437    
     20500  -105627.93      3.3948169     -105624.53      847.20796      63374.784      497.97437    
     20600  -105627.69      3.1105734     -105624.58      776.27235      68862.562      497.97437    
     20700  -105628.09      3.5045009     -105624.59      874.58061      66649.325      497.97437    
     20800  -105627.68      3.0156622     -105624.66      752.5864       74951.42       497.97437    
     20900  -105628.46      3.7922594     -105624.67      946.39341      73524.617      497.97437    
     21000  -105628.92      3.9001546     -105625.02      973.31965      62686.407      497.97437    
     21100  -105627.75      2.2897916     -105625.46      571.43866      63363.456      497.97437    
     21200  -105628.61      3.1263103     -105625.48      780.19965      70206.318      497.97437    
     21300  -105628.87      3.4267297     -105625.44      855.17209      68663.017      497.97437    
     21400  -105628.6       3.1226294     -105625.48      779.28105      61686.746      497.97437    
     21500  -105628.59      3.089188      -105625.5       770.93543      65139.854      497.97437    
     21600  -105628.11      2.6609123     -105625.45      664.05527      69987.544      497.97437    
     21700  -105628.8       3.8915906     -105624.91      971.18241      68839.566      497.97437    
     21800  -105628.23      3.8695741     -105624.36      965.68801      69413.013      497.97437    
     21900  -105627         2.8025148     -105624.2       699.39349      78623.357      497.97437    
     22000  -105627.16      3.2336013     -105623.93      806.97511      75232.792      497.97437    
     22100  -105628.02      4.4475733     -105623.57      1109.933       72140.356      497.97437    
     22200  -105627.93      4.0196141     -105623.91      1003.1319      67983.984      497.97437    
     22300  -105627.92      3.2459936     -105624.67      810.06773      70144.604      497.97437    
     22400  -105627.47      2.4703008     -105625         616.4864       67525.752      497.97437    
     22500  -105629         3.9976945     -105625         997.66164      64825.129      497.97437    
     22600  -105628.66      3.3626213     -105625.29      839.17324      63813.88       497.97437    
     22700  -105628.23      2.6986965     -105625.53      673.48468      64148.718      497.97437    
     22800  -105628.65      3.0819968     -105625.57      769.14079      58635.676      497.97437    
     22900  -105628.6       3.0682273     -105625.53      765.70449      65643.019      497.97437    
     23000  -105628.55      3.1756143     -105625.38      792.50391      72088.529      497.97437    
     23100  -105628.25      3.2860853     -105624.97      820.07299      66821.8        497.97437    
     23200  -105627.85      3.5973372     -105624.25      897.74877      67866.787      497.97437    
     23300  -105627.54      3.7894091     -105623.75      945.68209      76449.928      497.97437    
     23400  -105626.81      3.1884701     -105623.62      795.7122       79778          497.97437    
     23500  -105627.75      4.1330367     -105623.61      1031.4375      74413.468      497.97437    
     23600  -105628.09      3.958366      -105624.13      987.84684      68724.378      497.97437    
     23700  -105627.54      2.7202295     -105624.82      678.85843      68221.551      497.97437    
     23800  -105628.12      3.1579399     -105624.96      788.09311      75771.045      497.97437    
     23900  -105628.86      3.8356664     -105625.03      957.22602      65044.642      497.97437    
     24000  -105628.55      3.2169847     -105625.33      802.82828      63115.25       497.97437    
     24100  -105627.97      2.4381543     -105625.53      608.46396      66099.011      497.97437    
     24200  -105628.82      3.3709911     -105625.45      841.26199      59830.076      497.97437    
     24300  -105628.53      3.1737141     -105625.36      792.0297       67150.071      497.97437    
     24400  -105628.24      3.0156358     -105625.22      752.57979      64252.819      497.97437    
     24500  -105628.6       3.8046901     -105624.8       949.49561      64097.934      497.97437    
     24600  -105627.45      3.0972202     -105624.36      772.93994      68864.919      497.97437    
     24700  -105627.85      4.0435007     -105623.81      1009.093       71939.532      497.97437    
     24800  -105627.57      3.9585662     -105623.61      987.8968       75266.739      497.97437    
     24900  -105627.13      3.2868229     -105623.84      820.25705      80758.509      497.97437    
     25000  -105627.69      3.4416647     -105624.25      858.89925      71119.732      497.97437    
     25100  -105628.45      3.419664      -105625.03      853.40878      62901.787      497.97437    
     25200  -105628.82      3.2221531     -105625.6       804.11811      60053.134      497.97437    
     25300  -105629.01      3.2086419     -105625.81      800.74626      63656.618      497.97437    
     25400  -105628.67      2.7797358     -105625.89      693.70878      63002.035      497.97437    
     25500  -105628.21      2.4275801     -105625.78      605.82506      61791.825      497.97437    
     25600  -105628.75      3.3961801     -105625.35      847.54815      63153.8        497.97437    
     25700  -105628.25      3.3020095     -105624.95      824.04701      67746.566      497.97437    
     25800  -105628.38      3.6564979     -105624.72      912.51286      69267.505      497.97437    
     25900  -105628.19      3.4657485     -105624.73      864.90958      65936.096      497.97437    
     26000  -105627.5       2.6770476     -105624.82      668.08198      69984.005      497.97437    
     26100  -105628.41      3.6621879     -105624.74      913.93285      67599.5        497.97437    
     26200  -105628.62      3.8197443     -105624.8       953.25252      69361.056      497.97437    
     26300  -105627.88      2.60927       -105625.27      651.16745      68597.057      497.97437    
     26400  -105628.56      2.9783898     -105625.58      743.28472      63476.05       497.97437    
     26500  -105629.17      3.3009678     -105625.87      823.78705      61710.637      497.97437    
     26600  -105628.61      2.4975875     -105626.11      623.29606      57471.978      497.97437    
     26700  -105629.49      3.3500823     -105626.14      836.04401      58003.972      497.97437    
     26800  -105628.76      2.6240601     -105626.13      654.85847      61161.501      497.97437    
     26900  -105628.75      2.8928719     -105625.86      721.94294      60353.621      497.97437    
     27000  -105628.75      3.5929129     -105625.16      896.64464      69374.481      497.97437    
     27100  -105627.49      2.8065276     -105624.68      700.39491      75619.842      497.97437    
     27200  -105628.04      3.6865425     -105624.35      920.01076      73353.784      497.97437    
     27300  -105628.17      3.851408      -105624.32      961.15448      73394.607      497.97437    
     27400  -105627.49      2.9688291     -105624.52      740.89876      72816.386      497.97437    
     27500  -105628.22      3.5713397     -105624.65      891.26086      66407.069      497.97437    
     27600  -105627.87      2.9872655     -105624.88      745.49973      66781.931      497.97437    
     27700  -105628.73      3.6052268     -105625.12      899.71768      67359.415      497.97437    
     27800  -105628.83      3.1329527     -105625.7       781.85733      60020.021      497.97437    
     27900  -105628.89      2.5762491     -105626.31      642.92678      59103.685      497.97437    
     28000  -105629.24      2.7152069     -105626.52      677.605        60936.385      497.97437    
     28100  -105628.88      2.4149484     -105626.46      602.6727       62973.185      497.97437    
     28200  -105629.14      2.9077493     -105626.23      725.65574      60702.627      497.97437    
     28300  -105629.42      3.4805601     -105625.94      868.60596      58165.296      497.97437    
     28400  -105628.16      2.3902003     -105625.77      596.49658      64764.005      497.97437    
     28500  -105628.41      3.0259071     -105625.38      755.1431       68616.178      497.97437    
     28600  -105628.27      3.3513366     -105624.92      836.35703      65061.281      497.97437    
     28700  -105628.53      3.8332049     -105624.7       956.61173      66763.783      497.97437    
     28800  -105628.33      3.5110964     -105624.82      876.22657      67016.296      497.97437    
     28900  -105627.64      2.6436159     -105624.99      659.73878      75797.841      497.97437    
     29000  -105628.15      3.2000774     -105624.95      798.60891      65966.484      497.97437    
     29100  -105628.43      3.5473369     -105624.88      885.27072      62559.659      497.97437    
     29200  -105628.6       3.5852871     -105625.02      894.74156      62717.479      497.97437    
     29300  -105628.26      2.645471      -105625.62      660.20175      69326.637      497.97437    
     29400  -105629.21      3.0370594     -105626.17      757.92625      58877.906      497.97437    
     29500  -105629.26      2.7496594     -105626.51      686.20293      56135.305      497.97437    
     29600  -105628.95      2.3935428     -105626.56      597.33074      62100.994      497.97437    
     29700  -105629.19      2.8912222     -105626.3       721.53125      63680.458      497.97437    
     29800  -105629.04      3.153251      -105625.89      786.92294      59596.015      497.97437    
     29900  -105628.39      2.8597394     -105625.53      713.67442      62907.662      497.97437    
     30000  -105628.22      2.9877194     -105625.23      745.613        63342.866      497.97437    
     30100  -105628.1       3.0884688     -105625.01      770.75596      72370.738      497.97437    
     30200  -105628.82      3.9106472     -105624.91      975.93817      68550.644      497.97437    
     30300  -105628.2       3.1119817     -105625.09      776.62381      68905.959      497.97437    
     30400  -105628.07      2.8805863     -105625.19      718.87695      66621.323      497.97437    
     30500  -105628.9       3.6988439     -105625.2       923.08069      63797.925      497.97437    
     30600  -105627.96      2.5793208     -105625.38      643.69335      62330.12       497.97437    
     30700  -105628.9       3.4189055     -105625.48      853.21948      60793.715      497.97437    
     30800  -105628.64      2.894952      -105625.74      722.46204      60720.518      497.97437    
     30900  -105629         2.9530594     -105626.05      736.96329      62688.84       497.97437    
     31000  -105628.86      2.5589852     -105626.3       638.61842      60622.258      497.97437    
     31100  -105629         2.6824069     -105626.32      669.41945      58620.082      497.97437    
     31200  -105629.53      3.4649109     -105626.07      864.70055      58183.753      497.97437    
     31300  -105628.18      2.4006069     -105625.78      599.09366      68132.242      497.97437    
     31400  -105628.61      3.4420851     -105625.17      859.00417      65804.385      497.97437    
     31500  -105627.94      3.2053429     -105624.74      799.92295      67323.96       497.97437    
     31600  -105627.53      2.9866808     -105624.54      745.3538       71960.636      497.97437    
     31700  -105628.4       4.0383386     -105624.37      1007.8047      70067.496      497.97437    
     31800  -105628.02      3.4576418     -105624.56      862.88647      61334.37       497.97437    
     31900  -105628.68      3.7240793     -105624.95      929.37843      61836.688      497.97437    
     32000  -105627.88      2.4837784     -105625.4       619.84987      72249.529      497.97437    
     32100  -105628.46      2.9900162     -105625.47      746.18619      74663.951      497.97437    
     32200  -105628.68      3.240919      -105625.44      808.80129      67163.359      497.97437    
     32300  -105628.5       3.0958556     -105625.4       772.59939      67578.557      497.97437    
     32400  -105628.63      3.2522909     -105625.38      811.63926      68989.579      497.97437    
     32500  -105627.87      2.5187522     -105625.35      628.57791      69136.023      497.97437    
     32600  -105628.78      3.6305886     -105625.15      906.04696      65584.858      497.97437    
     32700  -105628.43      3.304309      -105625.13      824.62087      66014.685      497.97437    
     32800  -105627.94      2.8040065     -105625.14      699.76575      69269.909      497.97437    
     32900  -105628.62      3.5775247     -105625.05      892.80437      64984.959      497.97437    
     33000  -105628.11      3.0373138     -105625.08      757.98973      70927.649      497.97437    
     33100  -105628.41      3.3312823     -105625.08      831.3523       66574.29       497.97437    
     33200  -105628.1       3.0040048     -105625.09      749.67718      66815.983      497.97437    
     33300  -105628.4       3.3794418     -105625.02      843.37096      64669.663      497.97437    
     33400  -105628.29      3.402912      -105624.89      849.22816      60258.753      497.97437    
     33500  -105628.19      3.377642      -105624.81      842.9218       66936.932      497.97437    
     33600  -105628.06      3.2545523     -105624.81      812.20363      65781.994      497.97437    
     33700  -105628.11      3.2661125     -105624.85      815.08857      65886.934      497.97437    
     33800  -105628.47      3.5229579     -105624.95      879.18671      66868.468      497.97437    
     33900  -105628.31      3.0977126     -105625.22      773.06282      65663.176      497.97437    
     34000  -105628.42      2.9310516     -105625.49      731.47103      62590.325      497.97437    
     34100  -105628.67      2.9899543     -105625.68      746.17075      62884.479      497.97437    
     34200  -105628.54      2.7521038     -105625.79      686.81294      66566.58       497.97437    
     34300  -105629.12      3.3641871     -105625.76      839.56399      62517.532      497.97437    
     34400  -105628.72      2.9991655     -105625.72      748.46949      64315.682      497.97437    
     34500  -105628.09      2.515437      -105625.57      627.75056      63757.647      497.97437    
     34600  -105628.34      3.3466001     -105624.99      835.17501      63976.225      497.97437    
     34700  -105628.16      3.7013698     -105624.46      923.71106      69024.976      497.97437    
     34800  -105627.58      3.3151016     -105624.27      827.31425      65040.491      497.97437    
     34900  -105627.79      3.5978362     -105624.2       897.87329      70918.933      497.97437    
     35000  -105627.62      3.2928952     -105624.33      821.77245      69487.452      497.97437    
     35100  -105628.13      3.5413265     -105624.59      883.77079      65634.879      497.97437    
     35200  -105628.98      3.5958392     -105625.39      897.37492      61821.973      497.97437    
     35300  -105628.27      2.3150068     -105625.96      577.73136      67262.706      497.97437    
     35400  -105628.95      2.9699295     -105625.98      741.17338      59490.294      497.97437    
     35500  -105628.95      3.0687078     -105625.88      765.82441      59643.457      497.97437    
     35600  -105629.01      3.2795051     -105625.73      818.43083      58157.289      497.97437    
     35700  -105628.32      2.750929      -105625.57      686.51977      67238.194      497.97437    
     35800  -105628.36      3.1499833     -105625.21      786.10747      67989.992      497.97437    
     35900  -105628         3.3356102     -105624.67      832.43236      65128.913      497.97437    
     36000  -105628.09      3.7778911     -105624.31      942.80766      66515.263      497.97437    
     36100  -105627.7       3.4081528     -105624.29      850.53604      72934.163      497.97437    
     36200  -105627.61      3.2469729     -105624.36      810.31211      80678.655      497.97437    
     36300  -105628.35      3.8674496     -105624.49      965.1578       75098.618      497.97437    
     36400  -105627.84      3.0972601     -105624.74      772.94991      67760.652      497.97437    
     36500  -105627.99      3.136566      -105624.85      782.75905      64409.035      497.97437    
     36600  -105628.56      3.6450911     -105624.91      909.6662       65266.7        497.97437    
     36700  -105628.65      3.4792146     -105625.17      868.27017      69228.843      497.97437    
     36800  -105628.06      2.6554811     -105625.41      662.69985      67169.736      497.97437    
     36900  -105628.75      3.3213287     -105625.43      828.86828      64892.796      497.97437    
     37000  -105628.39      2.9421028     -105625.45      734.22897      68013.064      497.97437    
     37100  -105628.88      3.4655466     -105625.41      864.85921      63450.858      497.97437    
     37200  -105628.23      2.8248118     -105625.41      704.95792      63428.189      497.97437    
     37300  -105628.25      3.0206736     -105625.23      753.83703      65356.862      497.97437    
     37400  -105628.07      3.2360767     -105624.83      807.59286      63037.191      497.97437    
     37500  -105628.48      4.053173      -105624.43      1011.5068      68671.854      497.97437    
     37600  -105627.8       3.3709195     -105624.42      841.24414      66020.208      497.97437    
     37700  -105627.39      2.8608285     -105624.53      713.9462       68706.374      497.97437    
     37800  -105628.17      3.6328355     -105624.54      906.60769      74656.257      497.97437    
     37900  -105627.91      3.1799337     -105624.73      793.58186      72838.18       497.97437    
     38000  -105628.33      3.3103094     -105625.02      826.11832      67759.617      497.97437    
     38100  -105628.77      3.2525356     -105625.51      811.70034      62921.12       497.97437    
     38200  -105628.71      2.7598026     -105625.95      688.73426      63865.878      497.97437    
     38300  -105628.83      2.6853735     -105626.15      670.15979      68900.041      497.97437    
     38400  -105628.71      2.6212946     -105626.09      654.16831      65280.592      497.97437    
     38500  -105629.36      3.557829      -105625.81      887.88914      59048.89       497.97437    
     38600  -105628.18      2.5982768     -105625.58      648.42399      63659.789      497.97437    
     38700  -105628.61      3.5403978     -105625.07      883.53901      68980.457      497.97437    
     38800  -105627.26      2.9036382     -105624.36      724.62976      72012.51       497.97437    
     38900  -105627.69      3.8231112     -105623.86      954.09276      68304.557      497.97437    
     39000  -105627.58      3.6823668     -105623.9       918.96869      75874.415      497.97437    
     39100  -105627.63      3.5218139     -105624.11      878.90122      79146.381      497.97437    
     39200  -105627.8       3.3398553     -105624.46      833.49177      75476.092      497.97437    
     39300  -105627.94      3.1283295     -105624.81      780.70356      68892.909      497.97437    
     39400  -105628.42      3.275952      -105625.15      817.54412      63126.231      497.97437    
     39500  -105628.54      3.0688185     -105625.48      765.85205      59254.687      497.97437    
     39600  -105629.03      3.2817342     -105625.75      818.98713      64692.591      497.97437    
     39700  -105628.87      2.832575      -105626.04      706.89528      62708.716      497.97437    
     39800  -105628.32      2.1720323     -105626.15      542.05076      65240.554      497.97437    
     39900  -105629.18      3.3429072     -105625.84      834.2534       59755.63       497.97437    
     40000  -105628.91      3.7721146     -105625.14      941.36608      60520.764      497.97437    
     40100  -105627.89      3.2064183     -105624.68      800.19134      68579.361      497.97437    
     40200  -105627.67      3.4250303     -105624.25      854.74797      71493.72       497.97437    
     40300  -105627.37      3.3793154     -105623.99      843.33941      67835.952      497.97437    
     40400  -105628.16      4.1958938     -105623.96      1047.1241      69559.38       497.97437    
     40500  -105627.95      3.7080678     -105624.24      925.3826       72247.666      497.97437    
     40600  -105627.86      3.357963      -105624.5       838.01072      72276.387      497.97437    
     40700  -105627.59      2.8850494     -105624.7       719.99077      67507.585      497.97437    
     40800  -105628.58      3.7887544     -105624.79      945.51869      63820.05       497.97437    
     40900  -105628.56      3.3670162     -105625.19      840.27003      69134.729      497.97437    
     41000  -105628.04      2.4864799     -105625.55      620.52406      68101.915      497.97437    
     41100  -105628.97      3.304465      -105625.67      824.65979      64540.969      497.97437    
     41200  -105628.66      2.8629534     -105625.8       714.4765       59203.784      497.97437    
     41300  -105628.77      2.9567988     -105625.81      737.89648      64339.649      497.97437    
     41400  -105628.72      3.1035737     -105625.62      774.52551      65337.418      497.97437    
     41500  -105628.51      3.4063091     -105625.1       850.07593      70025.865      497.97437    
     41600  -105627.81      3.3132344     -105624.5       826.84829      68184.446      497.97437    
     41700  -105627.29      3.1914946     -105624.1       796.467        72613.65       497.97437    
     41800  -105627.99      4.1812621     -105623.81      1043.4726      70234.095      497.97437    
     41900  -105627.62      3.5939678     -105624.02      896.90789      67039.251      497.97437    
     42000  -105627.99      3.5166357     -105624.47      877.60896      68517.496      497.97437    
     42100  -105628.12      3.1992803     -105624.92      798.40999      70606.685      497.97437    
     42200  -105628.55      3.321356      -105625.23      828.87512      66158.077      497.97437    
     42300  -105628.47      3.0945868     -105625.38      772.28276      61964.126      497.97437    
     42400  -105628.66      3.2287978     -105625.43      805.77636      64535.673      497.97437    
     42500  -105628.47      3.0130716     -105625.45      751.93988      70320.036      497.97437    
     42600  -105628.42      3.0235084     -105625.39      754.54449      74017.73       497.97437    
     42700  -105628.54      3.2996855     -105625.24      823.46703      64749.631      497.97437    
     42800  -105628.05      3.0040611     -105625.04      749.69122      71995.103      497.97437    
     42900  -105627.94      3.4047116     -105624.54      849.67727      69541.161      497.97437    
     43000  -105628.16      4.4464591     -105623.71      1109.655       69715.767      497.97437    
     43100  -105626.92      3.4150687     -105623.51      852.26198      71076.611      497.97437    
     43200  -105627.36      3.8051633     -105623.55      949.61368      73996.978      497.97437    
     43300  -105627.22      3.2728213     -105623.95      816.76282      70141.298      497.97437    
     43400  -105628.14      3.5350642     -105624.6       882.20797      75670.982      497.97437    
     43500  -105628.32      2.9644148     -105625.35      739.79712      67200.349      497.97437    
     43600  -105628.8       3.273227      -105625.53      816.86407      62244.01       497.97437    
     43700  -105628.83      3.1975959     -105625.63      797.98964      62737.812      497.97437    
     43800  -105628.24      2.5683752     -105625.67      640.96178      68880.669      497.97437    
     43900  -105628.22      2.7692481     -105625.45      691.09147      66641.127      497.97437    
     44000  -105628.86      3.8735945     -105624.99      966.69132      62938.444      497.97437    
     44100  -105628.06      3.2841765     -105624.78      819.59661      68116.856      497.97437    
     44200  -105627.14      2.4781922     -105624.66      618.45578      75967.886      497.97437    
     44300  -105628.5       4.2893494     -105624.21      1070.4468      71919.746      497.97437    
     44400  -105627.71      3.6039171     -105624.11      899.39085      71354.101      497.97437    
     44500  -105627.76      3.4031216     -105624.36      849.28047      70240.825      497.97437    
     44600  -105627.93      2.9102484     -105625.02      726.27939      70083.211      497.97437    
     44700  -105628.52      2.8718292     -105625.65      716.69152      68613.945      497.97437    
     44800  -105629.07      3.1778311     -105625.89      793.05715      64384.237      497.97437    
     44900  -105629.36      3.3209593     -105626.04      828.7761       57555.054      497.97437    
     45000  -105628.36      2.2407619     -105626.12      559.20286      68510.943      497.97437    
     45100  -105628.7       2.8238704     -105625.88      704.72298      64835.949      497.97437    
     45200  -105628.67      3.250439      -105625.42      811.17711      63916.072      497.97437    
     45300  -105628.25      3.1390239     -105625.11      783.37243      69311.227      497.97437    
     45400  -105628.31      3.3665784     -105624.94      840.16077      69929.851      497.97437    
     45500  -105627.77      2.8890223     -105624.88      720.98224      64913.592      497.97437    
     45600  -105628.34      3.5915713     -105624.75      896.30984      69778.081      497.97437    
     45700  -105628.14      3.3481977     -105624.79      835.57369      64235.716      497.97437    
     45800  -105628.17      3.258221      -105624.91      813.11918      68355.008      497.97437    
     45900  -105628.63      3.5241645     -105625.1       879.48783      66560.099      497.97437    
     46000  -105628.33      2.828279      -105625.5       705.82318      63255.096      497.97437    
     46100  -105628.4       2.438566      -105625.96      608.56669      62979.689      497.97437    
     46200  -105629.45      3.0324964     -105626.42      756.78751      57314.518      497.97437    
     46300  -105629.68      2.6986623     -105626.99      673.47614      56283.854      497.97437    
     46400  -105629.12      1.9327851     -105627.19      482.34438      59951.6        497.97437    
     46500  -105629.6       2.6002183     -105627         648.90852      61074.808      497.97437    
     46600  -105629.2       2.4723038     -105626.73      616.98627      58188.615      497.97437    
     46700  -105629.27      2.7998898     -105626.47      698.73839      57949.966      497.97437    
     46800  -105628.85      2.6529175     -105626.2       662.0601       63068.012      497.97437    
     46900  -105628.66      2.8566392     -105625.8       712.90073      66179.906      497.97437    
     47000  -105628.33      2.9651259     -105625.37      739.9746       62152.028      497.97437    
     47100  -105628.35      3.4011453     -105624.95      848.78726      70254.91       497.97437    
     47200  -105627.81      3.1087038     -105624.71      775.80579      65477.635      497.97437    
     47300  -105628.56      4.0548183     -105624.51      1011.9174      65798.008      497.97437    
     47400  -105627.82      3.1548994     -105624.67      787.33433      64508.791      497.97437    
     47500  -105628.03      3.1280931     -105624.9       780.64455      70494.378      497.97437    
     47600  -105628.2       2.9848246     -105625.21      744.89057      68135.215      497.97437    
     47700  -105628.37      2.789508      -105625.58      696.14751      64330.061      497.97437    
     47800  -105629.57      3.3985985     -105626.17      848.15169      57328.44       497.97437    
     47900  -105628.81      2.1063668     -105626.7       525.66332      59665.452      497.97437    
     48000  -105629.73      2.9924532     -105626.74      746.79436      55808.535      497.97437    
     48100  -105629.02      2.3891839     -105626.63      596.24294      58317.419      497.97437    
     48200  -105629.06      2.7186045     -105626.34      678.45289      61251.605      497.97437    
     48300  -105628.62      2.619138      -105626         653.63012      61274.197      497.97437    
     48400  -105629.45      3.7513727     -105625.7       936.18975      60494.84       497.97437    
     48500  -105628.15      2.5142537     -105625.64      627.45527      64686.214      497.97437    
     48600  -105628.09      2.6846135     -105625.41      669.97013      71009.831      497.97437    
     48700  -105628.35      3.383294      -105624.97      844.33231      70581.423      497.97437    
     48800  -105628.67      3.9733892     -105624.7       991.59603      61540.722      497.97437    
     48900  -105628.18      3.3632059     -105624.82      839.31912      68506.985      497.97437    
     49000  -105627.33      2.3844352     -105624.94      595.05785      70578.961      497.97437    
     49100  -105628.43      3.6364172     -105624.8       907.50153      71237.247      497.97437    
     49200  -105628.83      4.0736881     -105624.76      1016.6265      65709.915      497.97437    
     49300  -105628.51      3.0492998     -105625.46      760.98097      67027.489      497.97437    
     49400  -105628.08      2.0392011     -105626.04      508.9015       64190.944      497.97437    
     49500  -105629.12      3.0398287     -105626.08      758.61737      65165.474      497.97437    
     49600  -105629.12      3.1087316     -105626.01      775.81271      63429.303      497.97437    
     49700  -105629.04      3.1266096     -105625.92      780.27435      60589.655      497.97437    
     49800  -105628.64      2.9028508     -105625.74      724.43326      63022.984      497.97437    
     49900  -105627.82      2.4405743     -105625.38      609.0679       67708.882      497.97437    
     50000  -105628.51      3.8399241     -105624.67      958.28858      65908.535      497.97437    
     50100  -105628.08      3.6110067     -105624.47      901.16011      67276.687      497.97437    
     50200  -105627.92      3.3677492     -105624.55      840.45295      63772.384      497.97437    
     50300  -105628.08      3.3735563     -105624.71      841.90218      67202.542      497.97437    
     50400  -105627.97      3.0544834     -105624.92      762.27457      69726.251      497.97437    
     50500  -105628.49      3.3961167     -105625.1       847.53234      66986.594      497.97437    
     50600  -105628.79      3.3315964     -105625.46      831.4307       65157.34       497.97437    
     50700  -105628.46      2.5379767     -105625.93      633.37556      62222.893      497.97437    
     50800  -105629         2.8171396     -105626.18      703.04323      64382.49       497.97437    
     50900  -105628.86      2.5383945     -105626.32      633.47983      64254.444      497.97437    
     51000  -105629.17      2.9807212     -105626.19      743.86653      57333.662      497.97437    
     51100  -105628.88      3.3951982     -105625.49      847.30312      60888.044      497.97437    
     51200  -105627.95      3.165495      -105624.79      789.97856      68311.232      497.97437    
     51300  -105627.77      3.4008835     -105624.37      848.72192      74559.436      497.97437    
     51400  -105627.48      3.3041288     -105624.17      824.57589      70064.111      497.97437    
     51500  -105628.09      4.0071438     -105624.09      1000.0198      66983.538      497.97437    
     51600  -105628.05      3.6186387     -105624.43      903.06474      69837.687      497.97437    
     51700  -105627.88      2.9240034     -105624.95      729.71208      69970.74       497.97437    
     51800  -105628.44      3.1839678     -105625.26      794.58861      67232.019      497.97437    
     51900  -105628.83      3.3487842     -105625.48      835.72006      65149.761      497.97437    
     52000  -105628.75      3.0785807     -105625.67      768.28828      64525.252      497.97437    
     52100  -105628.7       2.9727591     -105625.73      741.87952      63197.712      497.97437    
     52200  -105629.01      3.3027667     -105625.71      824.23597      66681.691      497.97437    
     52300  -105627.98      2.3105809     -105625.67      576.62684      71934.308      497.97437    
     52400  -105628.49      3.0578564     -105625.44      763.11635      64356.122      497.97437    
     52500  -105629.35      4.0822478     -105625.26      1018.7627      62692.57       497.97437    
     52600  -105628.37      2.9282865     -105625.44      730.78098      69399.557      497.97437    
     52700  -105628.34      2.8615853     -105625.48      714.13506      75001.817      497.97437    
     52800  -105627.82      2.4677031     -105625.35      615.83812      71006.349      497.97437    
     52900  -105628.67      3.7221317     -105624.95      928.89238      67381.853      497.97437    
     53000  -105628.7       3.9739859     -105624.72      991.74494      63223.439      497.97437    
     53100  -105627.6       2.7449204     -105624.85      685.02027      66138.994      497.97437    
     53200  -105628.48      3.6203362     -105624.86      903.48838      65871.336      497.97437    
     53300  -105628.11      3.1408149     -105624.97      783.81941      66605.038      497.97437    
     53400  -105628.49      3.4500286     -105625.04      860.98654      70076.155      497.97437    
     53500  -105628.25      3.1435246     -105625.1       784.49564      68945.7        497.97437    
     53600  -105628.51      3.3772657     -105625.13      842.82789      69433.83       497.97437    
     53700  -105628.3       3.1003775     -105625.2       773.72787      68508.308      497.97437    
     53800  -105628.11      2.8828803     -105625.23      719.44943      73373.689      497.97437    
     53900  -105628.6       3.462185      -105625.13      864.02029      66771.235      497.97437    
     54000  -105628.52      3.4267681     -105625.09      855.18167      61820.742      497.97437    
     54100  -105628.22      3.0359633     -105625.18      757.65272      67572.249      497.97437    
     54200  -105628.26      3.0141411     -105625.25      752.20679      67761.831      497.97437    
     54300  -105628.69      3.4097895     -105625.28      850.94451      63849.308      497.97437    
     54400  -105628.59      3.1760068     -105625.42      792.60187      62530.623      497.97437    
     54500  -105628.31      2.7184879     -105625.59      678.42379      60861.965      497.97437    
     54600  -105629.05      3.3919933     -105625.66      846.5033       62059.175      497.97437    
     54700  -105628.33      2.5698634     -105625.76      641.33319      63703.889      497.97437    
     54800  -105628.83      3.166159      -105625.67      790.14427      61305.986      497.97437    
     54900  -105628.71      3.3040697     -105625.4       824.56114      68992.789      497.97437    
     55000  -105628.04      2.952764      -105625.09      736.88956      68562.308      497.97437    
     55100  -105628.12      3.5692386     -105624.55      890.73649      71378.548      497.97437    
     55200  -105627.93      3.7741017     -105624.15      941.86198      66097.625      497.97437    
     55300  -105627.48      3.3913435     -105624.09      846.34112      70002.556      497.97437    
     55400  -105628.03      3.8360868     -105624.19      957.33094      69145.61       497.97437    
     55500  -105627.67      3.0263878     -105624.65      755.26305      69904.381      497.97437    
     55600  -105628.42      3.1578141     -105625.26      788.06171      67682.635      497.97437    
     55700  -105629.01      3.1492054     -105625.87      785.91333      56598.57       497.97437    
     55800  -105629.12      3.0364756     -105626.09      757.78057      61860.611      497.97437    
     55900  -105629.01      2.8961419     -105626.12      722.759        65884.693      497.97437    
     56000  -105628.33      2.317654      -105626.01      578.39198      65976.683      497.97437    
     56100  -105628.8       3.1905181     -105625.61      796.2233       63425.724      497.97437    
     56200  -105628.66      3.470756      -105625.19      866.15927      62108.917      497.97437    
     56300  -105628.09      3.0884677     -105625         770.75566      65961.873      497.97437    
     56400  -105628.45      3.600172      -105624.85      898.45621      65823.822      497.97437    
     56500  -105628         3.1774919     -105624.82      792.97249      65437.143      497.97437    
     56600  -105627.96      3.1297489     -105624.83      781.05777      71552.196      497.97437    
     56700  -105628.28      3.5180355     -105624.76      877.95829      70723.775      497.97437    
     56800  -105628.58      3.7796178     -105624.8       943.23857      68752.265      497.97437    
     56900  -105627.97      2.8202102     -105625.15      703.80954      62917.575      497.97437    
     57000  -105628.37      2.9726692     -105625.39      741.85708      62048.32       497.97437    
     57100  -105629.02      3.4111337     -105625.61      851.27995      64167.894      497.97437    
     57200  -105629.03      3.0846641     -105625.94      769.80644      63868.853      497.97437    
     57300  -105628.71      2.4992922     -105626.21      623.72149      60813.889      497.97437    
     57400  -105628.87      2.6491005     -105626.22      661.10753      61473.878      497.97437    
     57500  -105628.9       2.977489      -105625.92      743.05991      62754.075      497.97437    
     57600  -105628.68      3.3917599     -105625.29      846.44504      68537.734      497.97437    
     57700  -105628.01      3.2583883     -105624.75      813.16094      78018.325      497.97437    
     57800  -105627.47      2.9847589     -105624.49      744.87418      76319.519      497.97437    
     57900  -105627.56      3.2559091     -105624.3       812.54222      72302.71       497.97437    
     58000  -105628.68      4.3945755     -105624.28      1096.707       70100.99       497.97437    
     58100  -105627.87      3.1563552     -105624.71      787.69763      70640.181      497.97437    
     58200  -105628.2       3.1913021     -105625.01      796.41895      63441.716      497.97437    
     58300  -105628.64      3.4277646     -105625.21      855.43036      65780.128      497.97437    
     58400  -105628.59      3.14823       -105625.44      785.66992      67004.677      497.97437    
     58500  -105628.43      2.8792563     -105625.55      718.54505      62598.434      497.97437    
     58600  -105629.14      3.5753061     -105625.56      892.25069      63128.846      497.97437    
     58700  -105628.43      2.7637837     -105625.66      689.72778      65521.872      497.97437    
     58800  -105628.36      2.7672453     -105625.59      690.59167      66005.868      497.97437    
     58900  -105628.53      3.3330981     -105625.2       831.80545      67025.452      497.97437    
     59000  -105628.58      4.4332745     -105624.15      1106.3646      68730.896      497.97437    
     59100  -105627.23      3.8651329     -105623.37      964.57967      78377.089      497.97437    
     59200  -105625.95      2.6751855     -105623.27      667.61727      70039.024      497.97437    
     59300  -105627.18      4.0584342     -105623.12      1012.8198      65503.627      497.97437    
     59400  -105627.79      4.3569617     -105623.44      1087.3201      67542.828      497.97437    
     59500  -105627.37      3.3058207     -105624.06      824.99812      68214.646      497.97437    
     59600  -105628.02      3.6071608     -105624.42      900.20032      74559.239      497.97437    
     59700  -105628.78      3.9044575     -105624.87      974.39348      66879.031      497.97437    
     59800  -105627.99      2.6641849     -105625.33      664.87197      64840.71       497.97437    
     59900  -105628.06      2.6632266     -105625.4       664.63282      68684.703      497.97437    
     60000  -105628.87      3.5845806     -105625.28      894.56524      66801.194      497.97437    
     60100  -105628.75      3.4508394     -105625.3       861.18888      62876.371      497.97437    
     60200  -105628.19      2.7559022     -105625.44      687.76088      64791.061      497.97437    
     60300  -105628.52      3.0342721     -105625.48      757.23067      63919.199      497.97437    
     60400  -105628.37      2.972439      -105625.4       741.79963      61075.385      497.97437    
     60500  -105628.84      3.6890146     -105625.15      920.6277       62576.256      497.97437    
     60600  -105627.93      2.981859      -105624.95      744.1505       66514.663      497.97437    
     60700  -105628.32      3.6490882     -105624.67      910.66371      62205.03       497.97437    
     60800  -105627.99      3.5387186     -105624.45      883.11994      72492.308      497.97437    
     60900  -105627.35      2.941174      -105624.41      733.99718      70398.866      497.97437    
     61000  -105627.74      3.4889437     -105624.25      870.69816      73212.689      497.97437    
     61100  -105628.6       4.444008      -105624.16      1109.0433      65439.983      497.97437    
     61200  -105627.75      2.9889871     -105624.76      745.92937      73158.295      497.97437    
     61300  -105627.74      2.5549281     -105625.19      637.60592      71804.931      497.97437    
     61400  -105628.42      3.0978366     -105625.32      773.09376      64576.073      497.97437    
     61500  -105628.79      3.4006836     -105625.39      848.67205      61461.48       497.97437    
     61600  -105628.63      3.0965522     -105625.54      772.77324      61642.069      497.97437    
     61700  -105628.6       2.8957913     -105625.71      722.67149      61657.346      497.97437    
     61800  -105628.82      2.9592561     -105625.86      738.50973      62335.689      497.97437    
     61900  -105628.93      2.8430094     -105626.09      709.49929      62692.931      497.97437    
     62000  -105628.62      2.3778362     -105626.24      593.41102      69102.83       497.97437    
     62100  -105629.19      3.0910212     -105626.1       771.39294      58938.334      497.97437    
     62200  -105628.82      3.0380737     -105625.78      758.1794       60183.859      497.97437    
     62300  -105628.23      2.8761919     -105625.35      717.78029      61729.099      497.97437    
     62400  -105628.07      3.2185581     -105624.85      803.22093      68911.326      497.97437    
     62500  -105628.08      3.5845336     -105624.49      894.5535       66641.727      497.97437    
     62600  -105627.83      3.3915073     -105624.44      846.38202      69640.663      497.97437    
     62700  -105627.49      3.0330601     -105624.45      756.9282       69672.385      497.97437    
     62800  -105627.88      3.4545315     -105624.42      862.11029      71065.006      497.97437    
     62900  -105628.41      3.8668869     -105624.54      965.01739      63964.556      497.97437    
     63000  -105628.28      3.0432002     -105625.24      759.45875      65535.786      497.97437    
     63100  -105628.49      2.6665001     -105625.82      665.44977      62618.012      497.97437    
     63200  -105629.01      2.9998359     -105626.01      748.63678      63895.058      497.97437    
     63300  -105628.8       2.7800292     -105626.02      693.78199      64746.944      497.97437    
     63400  -105628.75      2.8868415     -105625.87      720.438        66822.4        497.97437    
     63500  -105628.82      3.2412376     -105625.58      808.88081      63537.553      497.97437    
     63600  -105628.18      2.9036359     -105625.27      724.62919      62527.186      497.97437    
     63700  -105628.2       3.3263331     -105624.87      830.1172       65733.708      497.97437    
     63800  -105627.93      3.3790653     -105624.55      843.277        71272.154      497.97437    
     63900  -105627.4       2.9831374     -105624.41      744.46953      71655.86       497.97437    
     64000  -105628.55      4.175423      -105624.37      1042.0154      70265.895      497.97437    
     64100  -105627.88      3.2317303     -105624.64      806.50819      69392.431      497.97437    
     64200  -105627.91      3.117322      -105624.8       777.95654      70404.143      497.97437    
     64300  -105628.29      3.3836989     -105624.91      844.43334      70312.231      497.97437    
     64400  -105628.65      3.5274446     -105625.13      880.30643      69139.851      497.97437    
     64500  -105628.65      3.1054555     -105625.55      774.99515      63693.412      497.97437    
     64600  -105628.49      2.5802212     -105625.91      643.91806      66762.796      497.97437    
     64700  -105628.78      2.7514921     -105626.03      686.66029      60326.103      497.97437    
     64800  -105628.93      2.9857232     -105625.94      745.11483      64924.14       497.97437    
     64900  -105629.05      3.5511312     -105625.5       886.21763      60417.219      497.97437    
     65000  -105628.43      3.7978886     -105624.64      947.79823      65409.767      497.97437    
     65100  -105627.15      3.0114675     -105624.14      751.53956      68615.091      497.97437    
     65200  -105627.28      3.4834086     -105623.79      869.31683      74539.354      497.97437    
     65300  -105627.94      4.2684525     -105623.67      1065.2318      76963.477      497.97437    
     65400  -105627.86      3.7707473     -105624.09      941.02485      68130.957      497.97437    
     65500  -105627.88      3.2955404     -105624.58      822.43257      67074.92       497.97437    
     65600  -105628.25      3.3928174     -105624.85      846.70896      67234.768      497.97437    
     65700  -105628.24      3.1954797     -105625.04      797.46152      70925.835      497.97437    
     65800  -105628.62      3.4461624     -105625.17      860.0217       67817.594      497.97437    
     65900  -105628.08      2.7667671     -105625.31      690.47232      64425.473      497.97437    
     66000  -105628.95      3.614266      -105625.33      901.97351      63334.987      497.97437    
     66100  -105628.42      2.928002      -105625.49      730.70997      59699.077      497.97437    
     66200  -105628.76      3.0816383     -105625.68      769.05133      60633.458      497.97437    
     66300  -105628.75      2.7432955     -105626         684.61476      60061.824      497.97437    
     66400  -105629.03      2.7115603     -105626.32      676.69495      64564.253      497.97437    
     66500  -105629.12      2.6333708     -105626.49      657.18204      57942.765      497.97437    
     66600  -105629.38      2.9202877     -105626.46      728.78479      58660.655      497.97437    
     66700  -105628.91      2.6793714     -105626.23      668.6619       59844.192      497.97437    
     66800  -105628.7       3.022664      -105625.68      754.33374      62246.996      497.97437    
     66900  -105628.19      3.063934      -105625.12      764.63305      69262.649      497.97437    
     67000  -105628.28      3.4642356     -105624.81      864.53203      66885.509      497.97437    
     67100  -105627.94      3.2308911     -105624.71      806.29875      64283          497.97437    
     67200  -105628.15      3.4970035     -105624.65      872.70956      63096.836      497.97437    
     67300  -105628.19      3.4509663     -105624.74      861.22056      66964.122      497.97437    
     67400  -105627.93      2.9555215     -105624.98      737.57773      69585.47       497.97437    
     67500  -105628.4       3.1713238     -105625.23      791.43319      67458.731      497.97437    
     67600  -105629.01      3.2637091     -105625.74      814.48879      59217.458      497.97437    
     67700  -105629.12      2.7331048     -105626.38      682.07159      59494.841      497.97437    
     67800  -105628.9       2.2996482     -105626.6       573.89848      61634.583      497.97437    
     67900  -105629.16      2.6790877     -105626.48      668.59111      60993.084      497.97437    
     68000  -105629.22      3.0264131     -105626.2       755.26938      54712.484      497.97437    
     68100  -105628.84      2.9186837     -105625.92      728.3845       59676.262      497.97437    
     68200  -105627.97      2.2886336     -105625.69      571.14968      65170.363      497.97437    
     68300  -105629.04      3.7167318     -105625.33      927.5448       62032.157      497.97437    
     68400  -105628.53      3.2796276     -105625.25      818.4614       61647.725      497.97437    
     68500  -105628.22      2.9727943     -105625.25      741.8883       62294.459      497.97437    
     68600  -105628.45      3.2857996     -105625.16      820.00168      67099.735      497.97437    
     68700  -105628.23      3.1551695     -105625.07      787.40172      69777.092      497.97437    
     68800  -105628.26      3.3260649     -105624.94      830.05026      69359.245      497.97437    
     68900  -105627.85      3.1186241     -105624.73      778.28147      63662.858      497.97437    
     69000  -105628.25      3.9996451     -105624.25      998.14842      67344.369      497.97437    
     69100  -105627.89      4.0130928     -105623.88      1001.5044      69059.841      497.97437    
     69200  -105627.16      3.192984      -105623.97      796.83868      71329.817      497.97437    
     69300  -105627.18      3.0414072     -105624.14      759.01129      70983.061      497.97437    
     69400  -105628.08      3.7004744     -105624.38      923.48761      65610.805      497.97437    
     69500  -105629.23      4.0297449     -105625.2       1005.6601      60140.054      497.97437    
     69600  -105628.32      2.3996375     -105625.92      598.85172      60942.209      497.97437    
     69700  -105628.99      3.0042688     -105625.98      749.74306      57950.047      497.97437    
     69800  -105628.6       2.7025913     -105625.9       674.45665      61163.522      497.97437    
     69900  -105628.88      3.2411769     -105625.64      808.86566      62360.946      497.97437    
     70000  -105628.69      3.3616783     -105625.33      838.9379       62160.762      497.97437    
     70100  -105627.83      2.7581669     -105625.07      688.32605      63201.981      497.97437    
     70200  -105628.31      3.7070821     -105624.6       925.13662      66443.884      497.97437    
     70300  -105627.63      3.3935785     -105624.24      846.89889      63927.475      497.97437    
     70400  -105627.17      3.1056562     -105624.06      775.04522      69762.917      497.97437    
     70500  -105628.06      4.1440292     -105623.92      1034.1808      68510.18       497.97437    
     70600  -105627.67      3.3853833     -105624.29      844.8537       65572.331      497.97437    
     70700  -105627.55      2.6499181     -105624.9       661.31158      68378.242      497.97437    
     70800  -105629.06      3.4910352     -105625.57      871.22012      61944.122      497.97437    
     70900  -105628.91      2.913795      -105625.99      727.16448      57913.346      497.97437    
     71000  -105628.96      2.9520969     -105626.01      736.72308      58471.184      497.97437    
     71100  -105628.66      2.758346      -105625.9       688.37074      60786.125      497.97437    
     71200  -105628.33      2.7081045     -105625.62      675.83252      62817.575      497.97437    
     71300  -105628.96      3.8300638     -105625.13      955.82785      60200.876      497.97437    
     71400  -105628.06      3.1732623     -105624.89      791.91694      65874.637      497.97437    
     71500  -105627.66      2.9510162     -105624.71      736.45339      67128.744      497.97437    
     71600  -105628.08      3.6874272     -105624.4       920.23155      65291.789      497.97437    
     71700  -105627.81      3.5820434     -105624.23      893.93206      67559.518      497.97437    
     71800  -105627.93      3.6406532     -105624.29      908.55868      68762.351      497.97437    
     71900  -105628.11      3.3606297     -105624.75      838.67622      63444.62       497.97437    
     72000  -105628.08      2.6920969     -105625.39      671.83768      60771.836      497.97437    
     72100  -105628.79      3.0522812     -105625.74      761.725        69679.706      497.97437    
     72200  -105628.3       2.4518137     -105625.85      611.87279      67710.007      497.97437    
     72300  -105628.91      3.2206656     -105625.69      803.74689      62482.465      497.97437    
     72400  -105629.07      3.5750616     -105625.5       892.18967      60629.709      497.97437    
     72500  -105628.4       2.9471452     -105625.45      735.48734      62201.093      497.97437    
     72600  -105627.91      2.6503854     -105625.26      661.42818      66268.884      497.97437    
     72700  -105628.37      3.9693583     -105624.4       990.59006      69118.135      497.97437    
     72800  -105627.9       4.1086469     -105623.79      1025.3508      72167.621      497.97437    
     72900  -105627.18      3.3313886     -105623.85      831.37883      69444.756      497.97437    
     73000  -105627.75      3.7630771     -105623.99      939.11069      65708.103      497.97437    
     73100  -105627.96      3.5973555     -105624.36      897.75334      66747.112      497.97437    
     73200  -105628.41      3.5213422     -105624.89      878.7835       69210.507      497.97437    
     73300  -105627.95      2.7205471     -105625.23      678.93769      64921.124      497.97437    
     73400  -105628.5       3.2291243     -105625.27      805.85783      64314.356      497.97437    
     73500  -105628.53      3.2430279     -105625.28      809.3276       57960.449      497.97437    
     73600  -105628.84      3.5003683     -105625.34      873.54928      63805.433      497.97437    
     73700  -105628.32      2.8356521     -105625.48      707.6632       66034.769      497.97437    
     73800  -105628.24      2.7658012     -105625.47      690.23127      62579.798      497.97437    
     73900  -105629.01      3.8541605     -105625.16      961.8414       62904.599      497.97437    
     74000  -105628.02      3.3060154     -105624.71      825.0467       62748.224      497.97437    
[...]
    181900  -105627.82      3.4178336     -105624.41      852.95199      67007.532      497.97437    
    182000  -105628.07      3.5654687     -105624.5       889.79568      71402.465      497.97437    
    182100  -105628.05      3.2598397     -105624.79      813.52314      72601.494      497.97437    
    182200  -105628.05      2.8986413     -105625.15      723.38275      67235.472      497.97437    
    182300  -105628.7       3.0608449     -105625.64      763.86214      63489.878      497.97437    
    182400  -105628.87      2.5405488     -105626.32      634.01746      61693.681      497.97437    
    182500  -105629.27      2.5800462     -105626.69      643.87439      58337.109      497.97437    
    182600  -105629.53      2.838471      -105626.69      708.36669      55959.517      497.97437    
    182700  -105629.11      2.5458504     -105626.56      635.34051      56818.04       497.97437    
    182800  -105629.03      2.7452162     -105626.28      685.09409      67127.183      497.97437    
    182900  -105628.49      2.5872424     -105625.9       645.67027      68541.666      497.97437    
    183000  -105628.69      3.2069549     -105625.48      800.32526      65048.155      497.97437    
    183100  -105628.37      3.1883687     -105625.18      795.6869       62870.881      497.97437    
    183200  -105627.89      2.8987553     -105624.99      723.41118      66973.091      497.97437    
    183300  -105628.64      3.9038749     -105624.74      974.24808      64675.417      497.97437    
    183400  -105628.2       3.4077354     -105624.79      850.43187      68495.992      497.97437    
    183500  -105627.83      2.8749212     -105624.96      717.46317      69207.688      497.97437    
    183600  -105627.82      2.774801      -105625.05      692.47724      69543.606      497.97437    
    183700  -105628.83      3.8043389     -105625.03      949.40794      63568.562      497.97437    
    183800  -105628.32      3.0634011     -105625.25      764.50007      67340.781      497.97437    
    183900  -105628.59      3.0410407     -105625.55      758.91984      64409.737      497.97437    
    184000  -105628.9       3.0531158     -105625.85      761.93329      60230.255      497.97437    
    184100  -105628.58      2.5331208     -105626.05      632.16371      60943.859      497.97437    
    184200  -105629.12      3.1110306     -105626.01      776.38647      62184.895      497.97437    
    184300  -105628.74      2.9021337     -105625.84      724.25431      63554.461      497.97437    
    184400  -105628.81      3.3548712     -105625.45      837.23913      63322.911      497.97437    
    184500  -105628.38      3.4776959     -105624.9       867.89118      65287.956      497.97437    
    184600  -105627.27      2.7522377     -105624.52      686.84637      73569.79       497.97437    
    184700  -105627.52      3.4402164     -105624.08      858.5378       75872.241      497.97437    
    184800  -105627.79      3.89996       -105623.89      973.27109      75374.834      497.97437    
    184900  -105627.79      3.7568551     -105624.03      937.55794      66878.73       497.97437    
    185000  -105628.27      3.8757836     -105624.39      967.23765      68009.711      497.97437    
    185100  -105627.5       2.7468258     -105624.76      685.49577      67511.875      497.97437    
    185200  -105628.62      3.7588947     -105624.86      938.06692      66565.907      497.97437    
    185300  -105628.37      3.2071424     -105625.16      800.37205      64704.746      497.97437    
    185400  -105628.02      2.6729164     -105625.35      667.05101      66269.038      497.97437    
    185500  -105628.89      3.5233384     -105625.37      879.28168      62988.667      497.97437    
    185600  -105628.57      3.0734302     -105625.5       767.00292      62486.238      497.97437    
    185700  -105628.45      2.7852611     -105625.66      695.08766      61583.562      497.97437    
    185800  -105628.79      2.9550291     -105625.83      737.45484      63128.286      497.97437    
    185900  -105628.98      2.9266554     -105626.05      730.37392      61589.512      497.97437    
    186000  -105628.64      2.4702915     -105626.17      616.4841       59360.695      497.97437    
    186100  -105629.31      3.2694417     -105626.04      815.91942      58351.537      497.97437    
    186200  -105628.59      2.7890107     -105625.8       696.02342      66836.605      497.97437    
    186300  -105628.83      3.4658555     -105625.37      864.93629      66176.951      497.97437    
    186400  -105627.84      2.8694415     -105624.97      716.09566      66813.129      497.97437    
    186500  -105627.65      3.0727718     -105624.57      766.83861      71576.023      497.97437    
    186600  -105628.12      3.9230997     -105624.2       979.0458       75085.822      497.97437    
    186700  -105627.58      3.3638551     -105624.22      839.48114      69681.76       497.97437    
    186800  -105627.9       3.5844498     -105624.32      894.53258      66240.884      497.97437    
    186900  -105628.24      3.6191011     -105624.62      903.18015      64351.308      497.97437    
    187000  -105627.78      2.8729338     -105624.91      716.9672       70465.071      497.97437    
    187100  -105629.01      3.9635692     -105625.05      989.14534      64347.253      497.97437    
    187200  -105628.58      3.2450849     -105625.34      809.84095      63097.662      497.97437    
    187300  -105628.12      2.6711303     -105625.45      666.60526      70656.485      497.97437    
    187400  -105627.78      2.4561303     -105625.33      612.95004      71392.618      497.97437    
    187500  -105629.01      4.0121458     -105625         1001.2681      66833.304      497.97437    
    187600  -105628.51      3.5157243     -105624.99      877.38151      62019.516      497.97437    
    187700  -105628.3       3.1302064     -105625.17      781.17196      71930.131      497.97437    
    187800  -105628.01      2.7032992     -105625.31      674.63332      72866.821      497.97437    
    187900  -105628.32      3.048043      -105625.27      760.66732      63052.991      497.97437    
    188000  -105628.77      3.8192        -105624.95      953.11667      67137.753      497.97437    
    188100  -105627.87      3.2732333     -105624.59      816.86564      74916.112      497.97437    
    188200  -105627.75      3.5389015     -105624.21      883.16559      76021.38       497.97437    
    188300  -105627.91      4.0055531     -105623.9       999.62281      73705.435      497.97437    
    188400  -105626.71      2.7671468     -105623.94      690.56707      74608.136      497.97437    
    188500  -105628.3       4.366599      -105623.93      1089.7252      69102.693      497.97437    
    188600  -105627.95      3.4060921     -105624.55      850.02178      65686.067      497.97437    
    188700  -105628.52      3.302616      -105625.22      824.19835      63358.98       497.97437    
    188800  -105628.19      2.6284869     -105625.56      655.96322      63649.781      497.97437    
    188900  -105628.92      3.339471      -105625.58      833.39588      63976.013      497.97437    
    189000  -105628.38      2.8015171     -105625.58      699.14449      61125.738      497.97437    
    189100  -105629.31      3.8207533     -105625.49      953.50432      63657          497.97437    
    189200  -105627.94      2.3880922     -105625.55      595.9705       67613.276      497.97437    
    189300  -105628.48      3.1415478     -105625.34      784.0023       70338.343      497.97437    
    189400  -105628.38      3.730872      -105624.65      931.07361      64484.769      497.97437    
    189500  -105627.87      3.7232774     -105624.14      929.17832      75317.387      497.97437    
    189600  -105627.1       3.1508545     -105623.95      786.32487      76259.505      497.97437    
    189700  -105627.45      3.6743245     -105623.77      916.96166      68952.718      497.97437    
    189800  -105627.61      3.8277137     -105623.78      955.24136      65483.111      497.97437    
    189900  -105627.36      3.0489313     -105624.31      760.889        68565.159      497.97437    
    190000  -105628.64      3.4551588     -105625.19      862.26683      64852.292      497.97437    
    190100  -105628.72      2.9843273     -105625.73      744.76648      63291.722      497.97437    
    190200  -105628.69      2.8164339     -105625.87      702.86712      64545.54       497.97437    
    190300  -105628.82      2.9965916     -105625.83      747.82714      66285.494      497.97437    
    190400  -105628.6       2.9428734     -105625.66      734.42127      63240.199      497.97437    
    190500  -105628.84      3.4907503     -105625.35      871.14901      60525.813      497.97437    
    190600  -105627.92      2.8896623     -105625.03      721.14196      65187.443      497.97437    
    190700  -105627.63      3.0226385     -105624.61      754.3274       72566.786      497.97437    
    190800  -105628.53      4.4692863     -105624.06      1115.3517      67102.211      497.97437    
    190900  -105627.62      3.4423599     -105624.18      859.07275      71807.819      497.97437    
    191000  -105627.19      2.8671067     -105624.33      715.51298      76166.417      497.97437    
    191100  -105627.96      3.6327775     -105624.33      906.59322      73067.117      497.97437    
    191200  -105628.39      3.841426      -105624.54      958.66337      65569.778      497.97437    
    191300  -105627.96      3.1105409     -105624.85      776.26424      63591.88       497.97437    
    191400  -105628.22      3.2097503     -105625.01      801.02287      68621.219      497.97437    
    191500  -105628.54      3.4176291     -105625.12      852.90095      70536.561      497.97437    
    191600  -105628.49      3.2120191     -105625.28      801.58908      65436.361      497.97437    
    191700  -105628.76      3.3281402     -105625.43      830.56817      67399.477      497.97437    
    191800  -105628.02      2.4638489     -105625.56      614.87628      70160.257      497.97437    
    191900  -105628.74      3.3286333     -105625.41      830.69123      63182.009      497.97437    
    192000  -105628.93      3.9804117     -105624.95      993.34854      67350.206      497.97437    
    192100  -105627.14      2.6471022     -105624.49      660.60882      71629.473      497.97437    
    192200  -105627.74      4.0564314     -105623.68      1012.32        76753.839      497.97437    
    192300  -105627.69      4.2520989     -105623.44      1061.1506      77805.656      497.97437    
    192400  -105626.61      2.9129896     -105623.7       726.96348      79432.593      497.97437    
    192500  -105627.98      4.0087606     -105623.97      1000.4233      76517.714      497.97437    
    192600  -105627.9       3.3342195     -105624.56      832.08531      65942.663      497.97437    
    192700  -105628.32      3.2815627     -105625.04      818.94433      63929.968      497.97437    
    192800  -105628.7       3.3060083     -105625.4       825.04494      69453.857      497.97437    
    192900  -105628.04      2.4781754     -105625.56      618.45158      70278.243      497.97437    
    193000  -105628.89      3.4395745     -105625.45      858.37761      62408.007      497.97437    
    193100  -105628.66      3.2673519     -105625.39      815.39788      65410.559      497.97437    
    193200  -105628.29      2.9143065     -105625.37      727.29213      74292.328      497.97437    
    193300  -105628.32      3.1490079     -105625.17      785.86403      73613.394      497.97437    
    193400  -105628.26      3.6722846     -105624.59      916.45259      68205.551      497.97437    
    193500  -105627.56      3.6908451     -105623.87      921.08451      68344.824      497.97437    
    193600  -105626.99      3.5427138     -105623.45      884.11698      79898.943      497.97437    
    193700  -105626.24      2.9394653     -105623.3       733.57074      81316.589      497.97437    
    193800  -105627.27      4.1333988     -105623.14      1031.5279      72115.622      497.97437    
    193900  -105628.19      4.6140509     -105623.57      1151.4791      67443.652      497.97437    
    194000  -105627.8       3.3147027     -105624.48      827.21471      72800.021      497.97437    
    194100  -105627.81      3.079203      -105624.73      768.44358      72049.616      497.97437    
    194200  -105628.4       3.5689708     -105624.83      890.66966      67184.43       497.97437    
    194300  -105628.22      3.1513841     -105625.06      786.45705      69249.119      497.97437    
    194400  -105628.23      2.9616054     -105625.27      739.09602      74902.218      497.97437    
    194500  -105628.68      3.2693278     -105625.41      815.89097      66819.551      497.97437    
    194600  -105628.64      3.0375711     -105625.61      758.05396      64384.359      497.97437    
    194700  -105628.47      2.7035885     -105625.77      674.70552      67279.53       497.97437    
    194800  -105629.1       3.3097202     -105625.79      825.97129      67249.743      497.97437    
    194900  -105629.13      3.2825014     -105625.84      819.17857      60843.253      497.97437    
    195000  -105628.66      2.6699013     -105625.99      666.29857      65539.937      497.97437    
    195100  -105628.11      2.1620699     -105625.95      539.56455      72532.968      497.97437    
    195200  -105628.78      3.3351083     -105625.44      832.30712      69413.125      497.97437    
    195300  -105628.9       4.0110212     -105624.89      1000.9874      60998.332      497.97437    
    195400  -105627.82      2.9930061     -105624.83      746.93235      71739.525      497.97437    
    195500  -105627.64      2.9082756     -105624.73      725.78707      74783.201      497.97437    
    195600  -105628.06      3.5720476     -105624.48      891.43752      69303.015      497.97437    
    195700  -105628.28      3.9837714     -105624.3       994.18699      66442.663      497.97437    
    195800  -105628.3       3.6894987     -105624.61      920.74853      64728.097      497.97437    
    195900  -105627.77      2.445148      -105625.33      610.2093       68944.346      497.97437    
    196000  -105628.52      2.8970997     -105625.62      722.99803      62346.46       497.97437    
    196100  -105629.11      3.3505257     -105625.76      836.15468      66760.026      497.97437    
    196200  -105628.71      2.8262527     -105625.88      705.31749      66354.219      497.97437    
    196300  -105628.8       2.9592809     -105625.84      738.51592      64534.166      497.97437    
    196400  -105628.65      3.0042547     -105625.64      749.73955      63291.725      497.97437    
    196500  -105628.57      3.3478819     -105625.22      835.49488      67171.746      497.97437    
    196600  -105627.35      2.8756621     -105624.47      717.64807      72808.239      497.97437    
    196700  -105627.94      4.1335427     -105623.8       1031.5638      68605.245      497.97437    
    196800  -105628.02      4.1059644     -105623.91      1024.6814      68027.777      497.97437    
    196900  -105627.35      3.073027      -105624.27      766.9023       62712.575      497.97437    
    197000  -105627.37      2.8571037     -105624.51      713.01664      65928.742      497.97437    
    197100  -105627.64      3.0597652     -105624.58      763.59271      71413.043      497.97437    
    197200  -105628.94      4.2603081     -105624.67      1063.1993      66297.375      497.97437    
    197300  -105628.28      2.985697      -105625.29      745.10829      64795.165      497.97437    
    197400  -105628.15      2.5128287     -105625.64      627.09964      65458.508      497.97437    
    197500  -105628.93      3.2235688     -105625.7       804.4714       56724.955      497.97437    
    197600  -105628.75      3.0327015     -105625.71      756.83872      63355.836      497.97437    
    197700  -105628.63      2.9770375     -105625.66      742.94724      63577.803      497.97437    
    197800  -105628.47      3.0141504     -105625.45      752.20909      69248.382      497.97437    
    197900  -105628.14      3.3232158     -105624.82      829.33922      64409.353      497.97437    
    198000  -105628.06      4.1643442     -105623.9       1039.2506      69455.955      497.97437    
    198100  -105627.05      3.3069815     -105623.74      825.28782      78068.834      497.97437    
    198200  -105627         3.265296      -105623.73      814.8848       71505.581      497.97437    
    198300  -105628.26      4.3954241     -105623.86      1096.9187      72222.997      497.97437    
    198400  -105627.65      3.1908588     -105624.46      796.30833      71658.621      497.97437    
    198500  -105628.27      3.3708972     -105624.9       841.23856      72815.62       497.97437    
    198600  -105627.87      2.7343939     -105625.13      682.39328      71742.498      497.97437    
    198700  -105628.74      3.5952885     -105625.15      897.2375       62158.123      497.97437    
    198800  -105628.63      3.3381286     -105625.29      833.06087      67704.518      497.97437    
    198900  -105628.4       2.9207712     -105625.48      728.90546      72316.283      497.97437    
    199000  -105627.88      2.3677242     -105625.51      590.88746      71318.305      497.97437    
    199100  -105628.96      3.8035162     -105625.15      949.20265      60973.368      497.97437    
    199200  -105628.52      3.9534759     -105624.57      986.62647      72451.86       497.97437    
    199300  -105627         2.8156598     -105624.18      702.67393      76079.907      497.97437    
    199400  -105627.89      4.5741239     -105623.32      1141.5149      75854.837      497.97437    
    199500  -105626.84      3.7634484     -105623.08      939.20335      71189.318      497.97437    
    199600  -105626.83      3.5535319     -105623.28      886.81674      75772.091      497.97437    
    199700  -105626.79      3.1924701     -105623.6       796.71044      82072.265      497.97437    
    199800  -105628.17      4.2204435     -105623.95      1053.2507      73178.792      497.97437    
    199900  -105628.73      3.9879455     -105624.74      995.22867      70234.216      497.97437    
    200000  -105627.61      2.5395299     -105625.07      633.76318      69366.824      497.97437    
Loop time of 276.924 on 2 procs for 200000 steps with 32 atoms

Performance: 31.200 ns/day, 0.769 hours/ns, 722.221 timesteps/s, 23.111 katom-step/s
97.3% CPU use with 1 MPI tasks x 2 OpenMP threads

MPI task timing breakdown:
Section |  min time  |  avg time  |  max time  |%varavg| %total
---------------------------------------------------------------
Pair    | 272.21     | 272.21     | 272.21     |   0.0 | 98.30
Neigh   | 2.7864     | 2.7864     | 2.7864     |   0.0 |  1.01
Comm    | 1.0177     | 1.0177     | 1.0177     |   0.0 |  0.37
Output  | 0.076242   | 0.076242   | 0.076242   |   0.0 |  0.03
Modify  | 0.65139    | 0.65139    | 0.65139    |   0.0 |  0.24
Other   |            | 0.1835     |            |       |  0.07

Nlocal:             32 ave          32 max          32 min
Histogram: 1 0 0 0 0 0 0 0 0 0
Nghost:            886 ave         886 max         886 min
Histogram: 1 0 0 0 0 0 0 0 0 0
Neighs:              0 ave           0 max           0 min
Histogram: 1 0 0 0 0 0 0 0 0 0
FullNghs:         4424 ave        4424 max        4424 min
Histogram: 1 0 0 0 0 0 0 0 0 0

Total # of neighbors = 4424
Ave neighs/atom = 138.25
Neighbor list builds = 20000
Dangerous builds not checked

write_restart   lammps.restart
System init for write_restart ...
Generated 0 of 0 mixed pair_coeff terms from geometric mixing rule
Total wall time: 0:04:40
