LAMMPS (2 Aug 2023 - Update 1)
  using 2 OpenMP thread(s) per MPI task
Loaded 1 plugins from /home/ch24d003/.conda/envs/deepmd_gpu/lib/deepmd_lmp
plugin load     libdeepmd_lmp.so

units           metal

boundary        p p p

atom_style      atomic

neighbor        2.0 bin

neigh_modify    every 10 delay 0 check no

read_data       /scratch/ch24d003/ActiveLearning_Pt/bulk/bulk.lmp
Reading data file ...
  orthogonal box = (0 0 0) to (7.8948334 7.8700436 8.0146928)
  1 by 1 by 1 MPI processor grid
  reading atoms ...
  32 atoms
  read_data CPU = 0.209 seconds

mass            1 195.084

pair_style deepmd /scratch/ch24d003/ActiveLearning_Pt/DP_models/1/graph1.pb /scratch/ch24d003/ActiveLearning_Pt/DP_models/2/graph2.pb /scratch/ch24d003/ActiveLearning_Pt/DP_models/3/graph3.pb out_file md.out out_freq 100
Summary of lammps deepmd module ...
  >>> Info of deepmd-kit:
  installed to:       /home/ch24d003/.conda/envs/deepmd_gpu
  source:             v2.2.9
  source branch:      HEAD
  source commit:      be437483
  source commit at:   2024-02-04 13:44:12 +0800
  support model ver.: 1.1 
  build variant:      cuda
  build with tf inc:  /home/ch24d003/.conda/envs/deepmd_gpu/include;/home/ch24d003/.conda/envs/deepmd_gpu/include
  build with tf lib:  /home/ch24d003/.conda/envs/deepmd_gpu/lib/libtensorflow_cc.so
  set tf intra_op_parallelism_threads: 0
  set tf inter_op_parallelism_threads: 0
  >>> Info of lammps module:
  use deepmd-kit at:  /home/ch24d003/.conda/envs/deepmd_gpu
pair_coeff      * *

velocity        all create 400 12345678

fix             1 all nvt temp 400 400 0.1

timestep        0.0005

thermo_style    custom step pe ke etotal temp press vol

thermo          100

dump            1 all dcd 100 bulk.dcd

timer timeout   03:00:00 every 100
New timer settings: style=normal  mode=nosync  timeout=03:00:00

run             200000

CITE-CITE-CITE-CITE-CITE-CITE-CITE-CITE-CITE-CITE-CITE-CITE-CITE

Your simulation uses code contributions which should be cited:

- USER-DEEPMD package:

@article{Wang_ComputPhysCommun_2018_v228_p178,
  author = {Wang, Han and Zhang, Linfeng and Han, Jiequn and E, Weinan},
  doi = {10.1016/j.cpc.2018.03.016},
  url = {https://doi.org/10.1016/j.cpc.2018.03.016},
  year = 2018,
  month = {jul},
  publisher = {Elsevier {BV}},
  volume = 228,
  journal = {Comput. Phys. Commun.},
  title = {{DeePMD-kit: A deep learning package for many-body potential energy representation and molecular dynamics}},
  pages = {178--184}
}
@misc{Zeng_JChemPhys_2023_v159_p054801,
  title  = {{DeePMD-kit v2: A software package for deep potential models}},
  author =   {Jinzhe Zeng and Duo Zhang and Denghui Lu and Pinghui Mo and Zeyu Li
         and Yixiao Chen and Mari{\'a}n Rynik and Li'ang Huang and Ziyao Li and 
         Shaochen Shi and Yingze Wang and Haotian Ye and Ping Tuo and Jiabin
         Yang and Ye Ding and Yifan Li and Davide Tisi and Qiyu Zeng and Han 
         Bao and Yu Xia and Jiameng Huang and Koki Muraoka and Yibo Wang and 
         Junhan Chang and Fengbo Yuan and Sigbj{\o}rn L{\o}land Bore and Chun
         Cai and Yinnian Lin and Bo Wang and Jiayan Xu and Jia-Xin Zhu and 
         Chenxing Luo and Yuzhi Zhang and Rhys E A Goodall and Wenshuo Liang
         and Anurag Kumar Singh and Sikai Yao and Jingchao Zhang and Renata
         Wentzcovitch and Jiequn Han and Jie Liu and Weile Jia and Darrin M
         York and Weinan E and Roberto Car and Linfeng Zhang and Han Wang},
  journal =  {J. Chem. Phys.},
  volume =   159,
  issue =    5,  
  year =    2023,
  pages  =   054801,
  doi =      {10.1063/5.0155600},
}

CITE-CITE-CITE-CITE-CITE-CITE-CITE-CITE-CITE-CITE-CITE-CITE-CITE

Generated 0 of 0 mixed pair_coeff terms from geometric mixing rule
Neighbor list info ...
  update: every = 10 steps, delay = 0 steps, check = no
  max neighbors/atom: 2000, page size: 100000
  master list distance cutoff = 8
  ghost atom cutoff = 8
  binsize = 4, bins = 2 2 3
  1 neighbor lists, perpetual/occasional/extra = 1 0 0
  (1) pair deepmd, perpetual
      attributes: full, newton on
      pair build: full/bin/atomonly
      stencil: full/bin/3d
      bin: standard
Per MPI rank memory allocation (min/avg/max) = 3.499 | 3.499 | 3.499 Mbytes
   Step         PotEng         KinEng         TotEng          Temp          Press          Volume    
         0  -105632.03      1.6028258     -105630.42      400            23199.829      497.97437    
       100  -105630.87      0.48256059    -105630.39      120.42746      37672.632      497.97437    
       200  -105631.01      0.76615288    -105630.24      191.20054      38290.673      497.97437    
       300  -105630.89      0.83150258    -105630.06      207.50916      38643.063      497.97437    
       400  -105631.26      1.4697161     -105629.79      366.78125      35530.278      497.97437    
       500  -105630.77      1.2727881     -105629.5       317.63605      40643.931      497.97437    
       600  -105630.47      1.22643       -105629.24      306.06694      42814.495      497.97437    
       700  -105630.36      1.4234334     -105628.93      355.23097      44941.714      497.97437    
       800  -105630.17      1.5249182     -105628.64      380.55744      52022.42       497.97437    
       900  -105630.5       2.1089952     -105628.39      526.31926      43047.141      497.97437    
      1000  -105630.25      1.8651758     -105628.39      465.47187      45898.374      497.97437    
      1100  -105629.94      1.4214705     -105628.52      354.7411       51885.504      497.97437    
      1200  -105629.96      1.3929769     -105628.57      347.63027      52152.296      497.97437    
      1300  -105630.8       2.207114      -105628.59      550.8057       39855.33       497.97437    
      1400  -105630.38      1.5107282     -105628.87      377.01619      46319.539      497.97437    
      1500  -105630.3       1.2520261     -105629.04      312.4547       47819.126      497.97437    
      1600  -105630.58      1.5200951     -105629.06      379.35379      45013.733      497.97437    
      1700  -105630.55      1.5142596     -105629.03      377.89748      42103.779      497.97437    
      1800  -105630.42      1.4637733     -105628.95      365.29815      45157.426      497.97437    
      1900  -105630.55      1.8307676     -105628.72      456.88497      44134.284      497.97437    
      2000  -105630.28      1.8135119     -105628.46      452.57866      45809.971      497.97437    
      2100  -105629.64      1.3566552     -105628.28      338.56586      49932.943      497.97437    
      2200  -105630.11      2.1458151     -105627.96      535.50801      49768.258      497.97437    
      2300  -105630.16      2.2627773     -105627.9       564.69699      50471.802      497.97437    
      2400  -105629.77      1.6363432     -105628.13      408.36459      53683.027      497.97437    
      2500  -105629.71      1.4967615     -105628.21      373.53066      50931.654      497.97437    
      2600  -105630.46      2.1988887     -105628.26      548.753        45154.663      497.97437    
      2700  -105630.29      1.7383559     -105628.55      433.82278      47763.675      497.97437    
      2800  -105630.19      1.4385712     -105628.75      359.00874      47621.518      497.97437    
      2900  -105630.39      1.5594213     -105628.83      389.16801      43650.736      497.97437    
      3000  -105630.51      1.639298      -105628.87      409.10198      44835.874      497.97437    
      3100  -105630.51      1.5853658     -105628.93      395.6427       44443.392      497.97437    
      3200  -105630.3       1.3077679     -105628.99      326.36557      47026.34       497.97437    
      3300  -105630.55      1.6038032     -105628.95      400.24392      44061.903      497.97437    
      3400  -105630.44      1.6535964     -105628.79      412.67027      46494.76       497.97437    
      3500  -105630.28      1.7242244     -105628.56      430.29614      47727.368      497.97437    
      3600  -105630.13      1.7978666     -105628.33      448.67423      46062.199      497.97437    
      3700  -105629.88      1.6875087     -105628.19      421.1334       49299.106      497.97437    
      3800  -105629.9       1.8081158     -105628.1       451.23202      51400.09       497.97437    
      3900  -105630.39      2.2502744     -105628.14      561.57677      46084.368      497.97437    
      4000  -105630.15      1.5659326     -105628.58      390.79296      49017.722      497.97437    
      4100  -105630.15      1.3444262     -105628.81      335.514        46538.783      497.97437    
      4200  -105630.57      1.7178032     -105628.86      428.69367      44554.34       497.97437    
      4300  -105630.53      1.6172163     -105628.91      403.59127      43211.652      497.97437    
      4400  -105630.6       1.6220761     -105628.98      404.80408      44962.104      497.97437    
      4500  -105630.12      1.0906395     -105629.03      272.17918      45623.902      497.97437    
      4600  -105630.63      1.7533976     -105628.88      437.57659      43539.175      497.97437    
      4700  -105630.3       1.6543695     -105628.64      412.86322      45572.477      497.97437    
      4800  -105630.26      1.8443524     -105628.42      460.2752       48493.083      497.97437    
      4900  -105629.91      1.6965668     -105628.21      423.39394      46701.584      497.97437    
      5000  -105629.87      1.8577328     -105628.02      463.6144       48950.155      497.97437    
      5100  -105629.75      1.9929024     -105627.75      497.34722      52922.254      497.97437    
      5200  -105629.96      2.4059873     -105627.55      600.43638      51169.635      497.97437    
      5300  -105629.7       1.9165624     -105627.79      478.29586      50092.341      497.97437    
      5400  -105629.88      1.6806372     -105628.2       419.41856      48204.594      497.97437    
      5500  -105630.2       1.7182745     -105628.48      428.81129      49561.073      497.97437    
      5600  -105630.38      1.7131723     -105628.67      427.538        47415.493      497.97437    
      5700  -105630.54      1.678406      -105628.86      418.86174      43346.35       497.97437    
      5800  -105630.33      1.3045301     -105629.02      325.55754      45863.858      497.97437    
      5900  -105630.44      1.3980705     -105629.05      348.90142      46017.902      497.97437    
      6000  -105630.45      1.4870915     -105628.96      371.11744      44181.608      497.97437    
      6100  -105630.71      1.9119858     -105628.8       477.15373      41904.744      497.97437    
      6200  -105630.05      1.3590336     -105628.69      339.15941      47180.739      497.97437    
      6300  -105630.27      1.8468963     -105628.42      460.91006      50327.906      497.97437    
      6400  -105629.96      1.8788214     -105628.08      468.87727      50638.366      497.97437    
      6500  -105629.75      1.7890363     -105627.97      446.47055      53478.443      497.97437    
      6600  -105630.01      2.0162493     -105628         503.17365      53918.427      497.97437    
      6700  -105629.95      1.7519916     -105628.2       437.2257       51207.085      497.97437    
      6800  -105630.25      1.8070364     -105628.45      450.96265      51030.162      497.97437    
      6900  -105630.11      1.5377275     -105628.57      383.75411      47023.766      497.97437    
      7000  -105630.58      1.9399317     -105628.64      484.1279       43251.671      497.97437    
      7100  -105630.26      1.4809986     -105628.78      369.5969       45385.436      497.97437    
      7200  -105630.55      1.6680865     -105628.88      416.2864       46206.622      497.97437    
      7300  -105630.02      1.0541997     -105628.96      263.08528      48200.437      497.97437    
      7400  -105630.81      1.9486294     -105628.86      486.29849      42680.11       497.97437    
      7500  -105630.5       1.6935537     -105628.81      422.642        44244.781      497.97437    
      7600  -105630.06      1.2218186     -105628.84      304.91613      46590.883      497.97437    
      7700  -105630.47      1.7883229     -105628.68      446.29253      43261.53       497.97437    
      7800  -105630.28      1.8610503     -105628.42      464.4423       47274.633      497.97437    
      7900  -105630.08      1.8325897     -105628.25      457.33971      52187.698      497.97437    
      8000  -105629.96      1.7869598     -105628.17      445.95235      52433.796      497.97437    
      8100  -105629.84      1.6492597     -105628.19      411.58801      51634.079      497.97437    
      8200  -105630.03      1.7462815     -105628.28      435.8007       50527.991      497.97437    
      8300  -105630.4       1.8391174     -105628.56      458.96876      46132.928      497.97437    
      8400  -105630.68      1.6784588     -105629         418.87491      42516.585      497.97437    
      8500  -105630.41      1.2277774     -105629.18      306.4032       45495.081      497.97437    
      8600  -105630.54      1.3717381     -105629.16      342.32992      43644.144      497.97437    
      8700  -105630.65      1.5973329     -105629.05      398.6292       44047.32       497.97437    
      8800  -105630.55      1.6441423     -105628.91      410.31091      44911.401      497.97437    
      8900  -105630.28      1.4979553     -105628.78      373.82859      47597.816      497.97437    
      9000  -105630.11      1.5178186     -105628.59      378.78567      49234.519      497.97437    
      9100  -105630.27      1.9333466     -105628.34      482.48451      48618.623      497.97437    
      9200  -105629.98      1.7386834     -105628.24      433.90452      52060.656      497.97437    
      9300  -105630.23      1.9605931     -105628.26      489.28414      48109.103      497.97437    
      9400  -105630.03      1.6025011     -105628.42      399.91897      48070.07       497.97437    
      9500  -105630.35      1.8026996     -105628.55      449.88036      47450.749      497.97437    
      9600  -105630.31      1.6658612     -105628.64      415.73106      47368.306      497.97437    
      9700  -105630.2       1.5139795     -105628.69      377.8276       49301.803      497.97437    
      9800  -105630.47      1.7658818     -105628.71      440.69213      45403.64       497.97437    
      9900  -105630.1       1.3349524     -105628.76      333.14973      47741.135      497.97437    
     10000  -105630.68      1.9202425     -105628.76      479.21426      43765.656      497.97437    
     10100  -105630.28      1.4189846     -105628.86      354.12073      48761.109      497.97437    
     10200  -105630.48      1.5252161     -105628.95      380.63178      45768.041      497.97437    
     10300  -105630.46      1.4160288     -105629.04      353.38309      44708.199      497.97437    
     10400  -105630.52      1.4247147     -105629.1       355.55073      43975.171      497.97437    
     10500  -105630.58      1.4923595     -105629.09      372.43211      43487.8        497.97437    
     10600  -105630.52      1.5163416     -105629         378.41707      43775.389      497.97437    
     10700  -105630.49      1.6944902     -105628.8       422.8757       46513.189      497.97437    
     10800  -105630.04      1.4466962     -105628.59      361.03642      48738.025      497.97437    
     10900  -105630.22      1.8801933     -105628.34      469.21963      45559.951      497.97437    
     11000  -105629.81      1.6061998     -105628.21      400.84202      50638.95       497.97437    
     11100  -105630.53      2.3392513     -105628.19      583.7818       46508.057      497.97437    
     11200  -105629.77      1.3349222     -105628.44      333.14218      48702.493      497.97437    
     11300  -105630.4       1.8329407     -105628.56      457.42729      45711.339      497.97437    
     11400  -105630.22      1.5226344     -105628.7       379.98751      46712.795      497.97437    
     11500  -105630.43      1.6902742     -105628.74      421.82356      46749.267      497.97437    
     11600  -105630.56      1.7495882     -105628.81      436.62591      44354.031      497.97437    
     11700  -105630.05      1.1865008     -105628.86      296.10225      47107.982      497.97437    
     11800  -105630.67      1.8791662     -105628.79      468.9633       41867.309      497.97437    
     11900  -105630.27      1.4819262     -105628.79      369.82839      48753.614      497.97437    
     12000  -105630.42      1.6489983     -105628.77      411.52278      46085.039      497.97437    
     12100  -105630.38      1.661361      -105628.71      414.60801      45047.542      497.97437    
     12200  -105630.22      1.5645085     -105628.66      390.43755      48104.883      497.97437    
     12300  -105630.18      1.6741463     -105628.5       417.7987       47627.455      497.97437    
     12400  -105630.37      2.0467345     -105628.33      510.78153      47256.579      497.97437    
     12500  -105630.01      1.6660298     -105628.34      415.77314      50350.768      497.97437    
     12600  -105629.98      1.5728833     -105628.41      392.52757      51966.686      497.97437    
     12700  -105630.44      1.9033161     -105628.54      474.99014      45392.235      497.97437    
     12800  -105630.35      1.5278423     -105628.82      381.28717      45927.346      497.97437    
     12900  -105630.41      1.3773179     -105629.03      343.72242      45359.824      497.97437    
     13000  -105630.56      1.4604172     -105629.09      364.46062      43684.623      497.97437    
     13100  -105630.86      1.7511689     -105629.11      437.02038      39457.57       497.97437    
     13200  -105630.26      1.1228589     -105629.14      280.21981      44752.655      497.97437    
     13300  -105630.51      1.5103446     -105629         376.92047      46116.943      497.97437    
     13400  -105630.43      1.7771941     -105628.66      443.51521      43647.076      497.97437    
     13500  -105630.25      1.8520034     -105628.4       462.18458      48278.585      497.97437    
     13600  -105630.03      1.6616736     -105628.37      414.68601      50445.93       497.97437    
     13700  -105629.79      1.4291281     -105628.36      356.65214      53057.098      497.97437    
     13800  -105630.46      2.124438      -105628.33      530.17314      47389.081      497.97437    
     13900  -105630.24      1.7063902     -105628.53      425.84545      48654.426      497.97437    
     14000  -105630.3       1.5586672     -105628.74      388.97981      43624.036      497.97437    
     14100  -105630.41      1.5169307     -105628.9       378.56409      44722.823      497.97437    
     14200  -105630.36      1.3965446     -105628.97      348.52061      44691.43       497.97437    
     14300  -105630.47      1.5284391     -105628.95      381.43611      44150.552      497.97437    
     14400  -105630.64      1.7613903     -105628.88      439.57124      41886.758      497.97437    
     14500  -105630.25      1.4053572     -105628.84      350.71987      47584.593      497.97437    
     14600  -105630.16      1.5412513     -105628.62      384.6335       47633.789      497.97437    
     14700  -105630.27      2.030087      -105628.24      506.62698      46228.445      497.97437    
     14800  -105630.02      1.9098884     -105628.11      476.63032      48978.405      497.97437    
     14900  -105630         1.8168146     -105628.18      453.40289      50714.325      497.97437    
     15000  -105630.04      1.6658901     -105628.37      415.73827      49400.343      497.97437    
     15100  -105630.31      1.7160777     -105628.59      428.26306      46944.804      497.97437    
     15200  -105630.41      1.593283      -105628.82      397.61851      45252.589      497.97437    
     15300  -105630.52      1.5531118     -105628.97      387.59342      43537.487      497.97437    
     15400  -105630.47      1.4555795     -105629.02      363.25332      44260.031      497.97437    
     15500  -105630.46      1.4577695     -105629         363.79986      43731.466      497.97437    
     15600  -105630.46      1.5230351     -105628.94      380.0875       43051.627      497.97437    
     15700  -105630.45      1.6003926     -105628.85      399.39277      44066.487      497.97437    
     15800  -105630.56      1.7491343     -105628.81      436.51263      45640.353      497.97437    
     15900  -105630.03      1.2506121     -105628.78      312.10181      46953.332      497.97437    
     16000  -105630.55      1.8855023     -105628.67      470.54453      43819.083      497.97437    
     16100  -105630.03      1.4681328     -105628.56      366.38611      46003.055      497.97437    
     16200  -105630.44      2.2013593     -105628.24      549.36957      46213.295      497.97437    
     16300  -105629.9       2.1189995     -105627.78      528.81592      48423.39       497.97437    
     16400  -105629.5       1.8106579     -105627.69      451.86641      56892.075      497.97437    
     16500  -105629.61      1.8579669     -105627.75      463.67283      55147.679      497.97437    
     16600  -105629.7       1.7174306     -105627.98      428.60068      53925.982      497.97437    
     16700  -105630.64      2.2248071     -105628.42      555.22119      44926.716      497.97437    
     16800  -105630.36      1.5162104     -105628.84      378.38433      45796.125      497.97437    
     16900  -105630.37      1.4648739     -105628.91      365.57284      45886.22       497.97437    
     17000  -105630.49      1.5870469     -105628.9       396.06223      43589.175      497.97437    
     17100  -105630.39      1.5133188     -105628.88      377.6627       45263.844      497.97437    
     17200  -105630.51      1.7015779     -105628.81      424.6445       43537.158      497.97437    
     17300  -105630.24      1.4795303     -105628.76      369.23046      47825.114      497.97437    
     17400  -105630.43      1.7680744     -105628.66      441.23931      45598.25       497.97437    
     17500  -105630.02      1.468113      -105628.55      366.38118      48478.061      497.97437    
     17600  -105630.32      1.9430977     -105628.37      484.91799      46529.987      497.97437    
     17700  -105630.19      1.9414293     -105628.25      484.50164      51518.372      497.97437    
     17800  -105630.02      1.6823863     -105628.33      419.85505      50572.992      497.97437    
     17900  -105630.14      1.5836518     -105628.56      395.21495      46308.407      497.97437    
     18000  -105630.2       1.3938835     -105628.81      347.85652      45085.969      497.97437    
     18100  -105630.91      1.885897      -105629.02      470.64304      40418.399      497.97437    
     18200  -105630.77      1.4951313     -105629.27      373.12383      43192.307      497.97437    
     18300  -105630.4       1.0646005     -105629.33      265.68091      46204.57       497.97437    
     18400  -105630.44      1.2090508     -105629.23      301.7298       44547.758      497.97437    
     18500  -105630.78      1.73032       -105629.05      431.81737      42153.533      497.97437    
     18600  -105630.62      1.6556625     -105628.96      413.1859       43461.732      497.97437    
     18700  -105630.36      1.4247437     -105628.94      355.55797      44470.403      497.97437    
     18800  -105630.12      1.2781939     -105628.84      318.98512      45633.692      497.97437    
     18900  -105630.51      1.8988241     -105628.61      473.86912      46866.027      497.97437    
     19000  -105630.18      1.6869125     -105628.49      420.98461      45987.503      497.97437    
     19100  -105630.5       2.0092642     -105628.49      501.43047      45522.166      497.97437    
     19200  -105629.84      1.2367131     -105628.61      308.6332       49305.134      497.97437    
     19300  -105630.37      1.7664242     -105628.6       440.8275       46247.727      497.97437    
     19400  -105630.42      1.7619757     -105628.65      439.71733      46161.622      497.97437    
     19500  -105630.45      1.6345611     -105628.81      407.91985      45462.845      497.97437    
     19600  -105630.43      1.2618658     -105629.17      314.91027      47177.793      497.97437    
     19700  -105630.47      0.99568536    -105629.47      248.48249      45183.749      497.97437    
     19800  -105630.99      1.5113658     -105629.48      377.17532      39566.163      497.97437    
     19900  -105630.91      1.4795318     -105629.43      369.23084      39354.752      497.97437    
     20000  -105630.51      1.1596589     -105629.35      289.40361      40954.831      497.97437    
     20100  -105630.47      1.3465175     -105629.12      336.03589      43362.968      497.97437    
     20200  -105630.48      1.6121348     -105628.87      402.32314      45797.636      497.97437    
     20300  -105630.35      1.6251733     -105628.72      405.57703      46841.161      497.97437    
     20400  -105630.48      1.8313204     -105628.64      457.02294      45078.289      497.97437    
     20500  -105630.17      1.5158787     -105628.66      378.30154      47264.868      497.97437    
     20600  -105630.06      1.4169097     -105628.65      353.60292      50625.934      497.97437    
     20700  -105630.29      1.7613365     -105628.53      439.5578       48567.603      497.97437    
     20800  -105630.36      1.9666447     -105628.39      490.79438      42121.716      497.97437    
     20900  -105630.19      1.7930138     -105628.4       447.46317      44810.905      497.97437    
     21000  -105630         1.4368204     -105628.57      358.57181      48218.227      497.97437    
     21100  -105630.25      1.5174322     -105628.73      378.68924      45946.353      497.97437    
     21200  -105630.81      1.8482002     -105628.96      461.23546      39846.882      497.97437    
     21300  -105630.56      1.3243626     -105629.24      330.50693      42369.107      497.97437    
     21400  -105630.57      1.2594085     -105629.31      314.29704      42477.01       497.97437    
     21500  -105630.71      1.4513207     -105629.25      362.19051      40399.644      497.97437    
     21600  -105630.43      1.3055026     -105629.13      325.80026      44478.332      497.97437    
     21700  -105630.64      1.7167309     -105628.93      428.42607      42530.349      497.97437    
     21800  -105630.4       1.5801828     -105628.82      394.34924      44679.334      497.97437    
     21900  -105630.2       1.4363192     -105628.76      358.44674      47241.461      497.97437    
     22000  -105630.22      1.5278412     -105628.69      381.2869       49489.269      497.97437    
     22100  -105630.14      1.5285108     -105628.61      381.45402      47239.105      497.97437    
     22200  -105630.56      2.0286752     -105628.53      506.27466      45373.125      497.97437    
     22300  -105630.2       1.5730113     -105628.63      392.55951      43799.659      497.97437    
     22400  -105630.13      1.4030161     -105628.73      350.13565      46628.783      497.97437    
     22500  -105630.48      1.680445      -105628.8       419.3706       47089.146      497.97437    
     22600  -105630.64      1.6052705     -105629.03      400.6101       43048.057      497.97437    
     22700  -105630.51      1.1586496     -105629.35      289.15173      43291.909      497.97437    
     22800  -105630.7       1.263085      -105629.43      315.21453      41550.3        497.97437    
     22900  -105630.91      1.5258866     -105629.38      380.7991       39708.951      497.97437    
     23000  -105630.55      1.2722194     -105629.28      317.49411      44505.184      497.97437    
     23100  -105630.53      1.4877823     -105629.04      371.28982      42634.846      497.97437    
     23200  -105630.23      1.4200722     -105628.81      354.39214      47143.866      497.97437    
     23300  -105630.43      1.7586719     -105628.67      438.89283      45761.303      497.97437    
     23400  -105630.27      1.6246743     -105628.65      405.4525       45049.037      497.97437    
     23500  -105630.28      1.635598      -105628.65      408.1786       45169.229      497.97437    
     23600  -105630.23      1.5649925     -105628.66      390.55834      46755.137      497.97437    
     23700  -105630.36      1.6902072     -105628.67      421.80685      46532.066      497.97437    
     23800  -105630.53      1.7717309     -105628.76      442.15183      43417.788      497.97437    
     23900  -105630.06      1.1224919     -105628.93      280.12823      45669.19       497.97437    
     24000  -105630.7       1.6706283     -105629.03      416.92074      42963.807      497.97437    
     24100  -105630.64      1.4432113     -105629.2       360.16672      42182.632      497.97437    
     24200  -105630.8       1.4287235     -105629.37      356.55117      41727.613      497.97437    
     24300  -105630.39      0.91933424    -105629.47      229.42836      45101.522      497.97437    
     24400  -105630.85      1.5183818     -105629.34      378.92623      40889.289      497.97437    
     24500  -105630.73      1.7332353     -105628.99      432.54489      40958.331      497.97437    
     24600  -105630.28      1.5066138     -105628.78      375.98941      45892.825      497.97437    
     24700  -105630.03      1.390991      -105628.64      347.13468      45972.075      497.97437    
     24800  -105630.21      1.691233      -105628.52      422.06284      49903.018      497.97437    
     24900  -105630.43      1.9437105     -105628.49      485.07094      46403.938      497.97437    
     25000  -105630.29      1.6774177     -105628.61      418.61509      49360.498      497.97437    
     25100  -105630.22      1.4920638     -105628.73      372.35832      48839.424      497.97437    
     25200  -105630.31      1.5132006     -105628.79      377.63319      48292.222      497.97437    
     25300  -105630.38      1.5638072     -105628.82      390.26254      46948.118      497.97437    
     25400  -105630.66      1.7952633     -105628.87      448.02457      43779.997      497.97437    
     25500  -105630.43      1.3399782     -105629.09      334.40396      44864.34       497.97437    
     25600  -105630.54      1.2291541     -105629.31      306.74677      44197.735      497.97437    
     25700  -105630.63      1.2409403     -105629.39      309.68814      44678.928      497.97437    
     25800  -105630.88      1.5517939     -105629.33      387.26452      40064.511      497.97437    
     25900  -105630.63      1.4456162     -105629.18      360.7669       40696.196      497.97437    
     26000  -105630.37      1.4336126     -105628.93      357.77129      43765.798      497.97437    
     26100  -105630.17      1.5192821     -105628.65      379.1509       48107.009      497.97437    
     26200  -105630.27      1.775349      -105628.49      443.05476      45783.125      497.97437    
     26300  -105630.35      1.8688249     -105628.48      466.38253      46063.127      497.97437    
     26400  -105630.25      1.6439308     -105628.6       410.25813      51086.059      497.97437    
     26500  -105630.07      1.3588806     -105628.71      339.12121      52462.92       497.97437    
     26600  -105630.48      1.7521328     -105628.73      437.26095      46564.291      497.97437    
     26700  -105630.48      1.6505172     -105628.83      411.90183      44683.114      497.97437    
     26800  -105630.42      1.404603      -105629.02      350.53166      42895.887      497.97437    
     26900  -105630.7       1.4793419     -105629.22      369.18344      41811.958      497.97437    
     27000  -105630.68      1.2436547     -105629.44      310.36554      41444.623      497.97437    
     27100  -105630.53      1.0231711     -105629.5       255.34181      42724.884      497.97437    
     27200  -105631.12      1.7637943     -105629.35      440.17119      36365.537      497.97437    
     27300  -105630.46      1.3741507     -105629.08      342.93202      46257.742      497.97437    
     27400  -105630.16      1.4511474     -105628.71      362.14726      46748.969      497.97437    
     27500  -105630.02      1.5061782     -105628.51      375.88071      51648.25       497.97437    
     27600  -105630.21      1.80792       -105628.41      451.18316      46479.752      497.97437    
     27700  -105630.38      1.9489289     -105628.43      486.37324      47280.788      497.97437    
     27800  -105630.24      1.6211838     -105628.62      404.58141      47745.891      497.97437    
     27900  -105630.29      1.4955549     -105628.8       373.22955      45887.439      497.97437    
     28000  -105630.34      1.428174      -105628.91      356.41402      45518.843      497.97437    
     28100  -105630.66      1.6906345     -105628.97      421.91348      44902.239      497.97437    
     28200  -105630.49      1.4346653     -105629.06      358.03399      43652.285      497.97437    
     28300  -105630.56      1.4321223     -105629.13      357.39936      44019.524      497.97437    
     28400  -105630.45      1.2884836     -105629.16      321.553        44250.789      497.97437    
     28500  -105630.71      1.668094      -105629.04      416.28829      43050.921      497.97437    
     28600  -105630.48      1.653741      -105628.83      412.70635      43821.006      497.97437    
     28700  -105629.99      1.3629877     -105628.63      340.14619      45550.013      497.97437    
     28800  -105630.29      1.9329962     -105628.36      482.39708      48198.831      497.97437    
     28900  -105629.97      1.7246943     -105628.24      430.41341      49167.54       497.97437    
     29000  -105630.28      2.0058963     -105628.27      500.58997      47239.88       497.97437    
     29100  -105629.88      1.444621      -105628.44      360.51852      50158.346      497.97437    
     29200  -105630.53      1.9154102     -105628.62      478.00833      44640.609      497.97437    
     29300  -105630.3       1.4179169     -105628.88      353.85427      44939.1        497.97437    
     29400  -105630.42      1.4259879     -105628.99      355.86847      43449.28       497.97437    
     29500  -105630.59      1.5990062     -105629         399.04679      43984.264      497.97437    
     29600  -105630.58      1.5870893     -105629         396.0728       44675.441      497.97437    
     29700  -105630.36      1.3795503     -105628.98      344.27953      46238.43       497.97437    
     29800  -105630.31      1.4183841     -105628.89      353.97087      48048.908      497.97437    
     29900  -105630.54      1.820778      -105628.72      454.39199      45944.447      497.97437    
     30000  -105630.3       1.6846398     -105628.61      420.41744      47907.674      497.97437    
     30100  -105630.18      1.6065044     -105628.57      400.91803      48792.79       497.97437    
     30200  -105630.17      1.6923809     -105628.48      422.34929      46988.132      497.97437    
     30300  -105630.15      1.8281096     -105628.32      456.22166      47606.758      497.97437    
     30400  -105630.18      2.071273      -105628.11      516.90534      51063.14       497.97437    
     30500  -105629.86      1.7678322     -105628.09      441.17887      51727.43       497.97437    
     30600  -105630.05      1.841693      -105628.21      459.61153      49619.729      497.97437    
     30700  -105630.13      1.6303169     -105628.5       406.86065      52195.015      497.97437    
     30800  -105630.43      1.6837359     -105628.75      420.19186      46192.935      497.97437    
     30900  -105630.65      1.6708037     -105628.98      416.96453      40735.499      497.97437    
     31000  -105630.26      1.1649475     -105629.09      290.72342      46664.37       497.97437    
     31100  -105630.65      1.614548      -105629.04      402.9254       44525.912      497.97437    
     31200  -105630.63      1.6549638     -105628.97      413.01153      44177.698      497.97437    
     31300  -105630.31      1.3867222     -105628.92      346.06934      48310.649      497.97437    
     31400  -105630.26      1.4954402     -105628.76      373.20092      48540.719      497.97437    
     31500  -105630.34      1.9415188     -105628.4       484.52396      46371.848      497.97437    
     31600  -105630.28      2.1043592     -105628.17      525.1623       50666.174      497.97437    
     31700  -105629.45      1.246056      -105628.2       310.96479      57037.077      497.97437    
     31800  -105630.27      2.1003495     -105628.17      524.16164      50060.037      497.97437    
     31900  -105630.3       1.9678728     -105628.33      491.10085      47448.725      497.97437    
     32000  -105630.11      1.5842112     -105628.53      395.35456      52061.388      497.97437    
     32100  -105630.22      1.5870366     -105628.63      396.05966      46659.688      497.97437    
     32200  -105630.52      1.7893329     -105628.73      446.54456      45472.423      497.97437    
     32300  -105630.12      1.271976      -105628.85      317.43337      50599.719      497.97437    
     32400  -105630.58      1.7140994     -105628.87      427.76937      46167.417      497.97437    
     32500  -105630.52      1.6022233     -105628.92      399.84963      44486.925      497.97437    
     32600  -105630.39      1.3730493     -105629.01      342.65714      45563.406      497.97437    
     32700  -105630.54      1.43648       -105629.11      358.48687      45127.32       497.97437    
     32800  -105630.59      1.4051986     -105629.18      350.68031      41798          497.97437    
     32900  -105630.68      1.4797401     -105629.2       369.28282      44169.212      497.97437    
     33000  -105630.49      1.3427469     -105629.15      335.09492      47121.138      497.97437    
     33100  -105630.55      1.5933206     -105628.96      397.62789      42194.676      497.97437    
     33200  -105630.24      1.5315076     -105628.71      382.20189      45086.64       497.97437    
     33300  -105630.28      1.7835702     -105628.49      445.10643      51483.306      497.97437    
     33400  -105630.22      1.8251494     -105628.39      455.48291      51134.164      497.97437    
     33500  -105630.1       1.6710122     -105628.42      417.01655      48339.19       497.97437    
     33600  -105630         1.5176667     -105628.48      378.74776      49098.392      497.97437    
     33700  -105630.3       1.751703      -105628.55      437.15367      48862.176      497.97437    
     33800  -105630.64      1.8229015     -105628.82      454.92193      45310.506      497.97437    
     33900  -105630.5       1.2308661     -105629.27      307.17403      42797.59       497.97437    
     34000  -105630.43      1.0844688     -105629.34      270.63922      45744.837      497.97437    
     34100  -105630.96      1.7220868     -105629.24      429.76269      39641.308      497.97437    
     34200  -105630.64      1.4880766     -105629.15      371.36328      44281.376      497.97437    
     34300  -105630.37      1.3242529     -105629.05      330.47957      45114.874      497.97437    
     34400  -105630.25      1.4196392     -105628.83      354.28409      45622.929      497.97437    
     34500  -105630.32      1.7447497     -105628.57      435.41841      48163.61       497.97437    
     34600  -105630.44      1.952351      -105628.49      487.22725      46925.892      497.97437    
     34700  -105630.1       1.5408568     -105628.56      384.53505      51338.329      497.97437    
     34800  -105630.2       1.5935144     -105628.61      397.67625      48797.306      497.97437    
     34900  -105630.16      1.5261921     -105628.63      380.87536      49160.72       497.97437    
     35000  -105630.58      1.9292797     -105628.65      481.46958      45048.368      497.97437    
     35100  -105630.39      1.5121579     -105628.88      377.37298      44457.877      497.97437    
     35200  -105630.41      1.2601146     -105629.15      314.47324      45570.666      497.97437    
     35300  -105630.72      1.4093335     -105629.31      351.7122       42261.654      497.97437    
     35400  -105630.66      1.3026687     -105629.35      325.09302      41240.673      497.97437    
     35500  -105630.69      1.4171403     -105629.28      353.66048      40406.489      497.97437    
     35600  -105630.73      1.6251801     -105629.11      405.57873      41990.487      497.97437    
     35700  -105630.15      1.2111145     -105628.94      302.24483      47030.12       497.97437    
     35800  -105630.42      1.7176163     -105628.7       428.64702      44131.337      497.97437    
     35900  -105630.16      1.5290458     -105628.63      381.58752      45161.946      497.97437    
     36000  -105630.63      2.0034819     -105628.62      499.98743      44059.23       497.97437    
     36100  -105630.15      1.3938403     -105628.75      347.84573      49243.466      497.97437    
     36200  -105630.2       1.4002007     -105628.8       349.43303      47809.535      497.97437    
     36300  -105630.49      1.7355473     -105628.75      433.12187      44896.982      497.97437    
     36400  -105630.37      1.6248916     -105628.75      405.50672      45678.387      497.97437    
     36500  -105630.53      1.7601518     -105628.77      439.26215      45808.805      497.97437    
     36600  -105630.19      1.3163827     -105628.87      328.51548      47533.99       497.97437    
     36700  -105630.38      1.4826981     -105628.9       370.02102      45053.012      497.97437    
     36800  -105630.51      1.6501552     -105628.86      411.8115       44053.955      497.97437    
     36900  -105630.43      1.6219508     -105628.81      404.77282      44816.868      497.97437    
     37000  -105630.49      1.7601078     -105628.73      439.25119      47441.893      497.97437    
     37100  -105630.02      1.3245771     -105628.7       330.56046      52283.573      497.97437    
     37200  -105630.21      1.6935435     -105628.52      422.63945      50335.239      497.97437    
     37300  -105630.26      1.971093      -105628.29      491.90449      46733.261      497.97437    
     37400  -105630.2       1.9537366     -105628.25      487.57303      49236.578      497.97437    
     37500  -105630.1       1.6750504     -105628.42      418.02431      50572.407      497.97437    
     37600  -105629.93      1.2962111     -105628.63      323.48146      50897.695      497.97437    
     37700  -105630.58      1.7844748     -105628.79      445.33218      44901.68       497.97437    
     37800  -105630.63      1.557422      -105629.07      388.66906      43065.322      497.97437    
     37900  -105630.7       1.4329831     -105629.26      357.61419      43542.772      497.97437    
     38000  -105630.46      1.153824      -105629.3       287.94746      43128.326      497.97437    
     38100  -105630.61      1.3935271     -105629.22      347.76759      43825.864      497.97437    
     38200  -105630.75      1.6386977     -105629.11      408.95217      42985.51       497.97437    
     38300  -105630.48      1.4343025     -105629.04      357.94346      46678.855      497.97437    
     38400  -105630.3       1.3782759     -105628.92      343.96149      46496.011      497.97437    
     38500  -105630.38      1.6809484     -105628.7       419.49623      47452.054      497.97437    
     38600  -105630.08      1.5492137     -105628.53      386.62061      50112.123      497.97437    
     38700  -105630.61      2.1884749     -105628.42      546.15415      42842.02       497.97437    
     38800  -105629.89      1.371962      -105628.52      342.38579      50140.498      497.97437    
     38900  -105630.4       1.832984      -105628.57      457.4381       49054.831      497.97437    
     39000  -105629.92      1.2806859     -105628.64      319.607        51612.638      497.97437    
     39100  -105630.61      1.9785176     -105628.63      493.75735      43549.579      497.97437    
     39200  -105630.49      1.6980243     -105628.79      423.75766      47153.012      497.97437    
     39300  -105630.17      1.1499862     -105629.02      286.9897       48183.468      497.97437    
     39400  -105630.74      1.4248577     -105629.31      355.58642      42904.659      497.97437    
     39500  -105630.75      1.0629275     -105629.68      265.26339      42244.604      497.97437    
     39600  -105631.05      1.3210495     -105629.73      329.68012      37279.303      497.97437    
     39700  -105630.87      1.2093687     -105629.66      301.80915      38946.679      497.97437    
     39800  -105630.76      1.2571461     -105629.5       313.73244      38902.433      497.97437    
     39900  -105630.37      1.0972985     -105629.28      273.84099      47915.354      497.97437    
     40000  -105630.63      1.588555      -105629.04      396.43859      44772.051      497.97437    
     40100  -105630.57      1.6915224     -105628.87      422.13506      42262.674      497.97437    
     40200  -105630.28      1.4827432     -105628.79      370.03227      46251.954      497.97437    
     40300  -105630.12      1.4457075     -105628.68      360.78967      48501.585      497.97437    
     40400  -105630.27      1.7884571     -105628.48      446.326        46790.694      497.97437    
     40500  -105630.33      1.9831139     -105628.35      494.90442      47281.575      497.97437    
     40600  -105629.93      1.5303779     -105628.4       381.91996      48463.399      497.97437    
     40700  -105630.41      1.9223854     -105628.49      479.74905      44784.902      497.97437    
     40800  -105630.05      1.2840459     -105628.77      320.44554      47221.393      497.97437    
     40900  -105630.62      1.618188      -105629.01      403.83379      44113.362      497.97437    
     41000  -105630.64      1.418763      -105629.22      354.06543      44180.732      497.97437    
     41100  -105630.74      1.4477604     -105629.29      361.30199      42688.466      497.97437    
     41200  -105630.5       1.2366849     -105629.26      308.62615      44677.939      497.97437    
     41300  -105630.58      1.4233648     -105629.15      355.21384      44143.648      497.97437    
     41400  -105630.47      1.4453385     -105629.02      360.69759      43555.114      497.97437    
     41500  -105630.58      1.6704331     -105628.91      416.87202      45121.158      497.97437    
     41600  -105630.45      1.6052368     -105628.84      400.60169      45670.642      497.97437    
     41700  -105630.13      1.3478941     -105628.79      336.37944      50124.764      497.97437    
     41800  -105630.35      1.7108415     -105628.64      426.95632      47505.776      497.97437    
     41900  -105630.16      1.6656891     -105628.5       415.68811      47670.534      497.97437    
     42000  -105630.48      2.0903501     -105628.39      521.66621      44916.951      497.97437    
     42100  -105630.01      1.4799792     -105628.53      369.34251      50103.058      497.97437    
     42200  -105630.03      1.2638019     -105628.77      315.39345      47701.463      497.97437    
     42300  -105630.8       1.7393022     -105629.06      434.05894      40506.531      497.97437    
     42400  -105630.78      1.4722626     -105629.31      367.41676      41413.573      497.97437    
     42500  -105630.7       1.2938701     -105629.41      322.89726      42220.294      497.97437    
     42600  -105630.37      0.99922193    -105629.37      249.36507      45691.339      497.97437    
     42700  -105630.83      1.6957964     -105629.14      423.20166      40129.614      497.97437    
     42800  -105630.4       1.4229228     -105628.98      355.10354      46184.354      497.97437    
     42900  -105630.5       1.6368904     -105628.86      408.50113      43858.476      497.97437    
     43000  -105630.3       1.516412      -105628.78      378.43465      44755.754      497.97437    
     43100  -105630.26      1.5717584     -105628.69      392.24685      47226.685      497.97437    
     43200  -105630.23      1.6392874     -105628.59      409.09933      49563.374      497.97437    
     43300  -105630.43      1.9264412     -105628.51      480.76121      44296.876      497.97437    
     43400  -105630.14      1.5785079     -105628.56      393.93124      47570.671      497.97437    
     43500  -105630.09      1.4030992     -105628.69      350.15638      52286          497.97437    
     43600  -105630.67      1.740638      -105628.93      434.39232      43305.365      497.97437    
     43700  -105630.55      1.2887858     -105629.26      321.62842      43115.81       497.97437    
     43800  -105630.65      1.2946568     -105629.35      323.09358      43034.094      497.97437    
     43900  -105630.77      1.4550161     -105629.32      363.11274      41908.591      497.97437    
     44000  -105630.7       1.4846703     -105629.21      370.51321      42223.398      497.97437    
     44100  -105630.35      1.3149946     -105629.03      328.16907      47783.69       497.97437    
     44200  -105630.26      1.5153167     -105628.75      378.16129      49459.758      497.97437    
     44300  -105630.3       1.7282612     -105628.57      431.30356      46254.073      497.97437    
     44400  -105630.51      1.9608669     -105628.55      489.35247      43969.066      497.97437    
     44500  -105629.86      1.2220523     -105628.63      304.97446      46196.845      497.97437    
     44600  -105630.54      1.9437915     -105628.6       485.09114      44548.124      497.97437    
     44700  -105630.27      1.5894105     -105628.68      396.6521       46603.156      497.97437    
     44800  -105630.43      1.6151652     -105628.81      403.07941      46557.952      497.97437    
     44900  -105630.38      1.3803769     -105629         344.48583      43434.699      497.97437    
     45000  -105630.52      1.3538347     -105629.16      337.86196      42544.479      497.97437    
     45100  -105630.87      1.5463964     -105629.32      385.91752      40590.223      497.97437    
     45200  -105630.65      1.1274775     -105629.53      281.37245      43071.839      497.97437    
     45300  -105630.73      1.1244152     -105629.6       280.60822      41076.295      497.97437    
     45400  -105630.9       1.3966549     -105629.5       348.54814      38145.704      497.97437    
     45500  -105630.57      1.3675239     -105629.21      341.27824      41900.775      497.97437    
     45600  -105630.54      1.6702537     -105628.87      416.82726      44307.184      497.97437    
     45700  -105630.24      1.5020471     -105628.74      374.84975      47082.085      497.97437    
     45800  -105630.13      1.5136395     -105628.62      377.74273      46858.769      497.97437    
     45900  -105630.34      1.8647273     -105628.48      465.35993      47608.607      497.97437    
     46000  -105629.95      1.5216323     -105628.43      379.73741      47604.505      497.97437    
     46100  -105630.65      2.244625      -105628.41      560.16692      42755.939      497.97437    
     46200  -105630         1.3337809     -105628.67      332.85735      47802.25       497.97437    
     46300  -105630.05      1.2390757     -105628.82      309.2228       47314.079      497.97437    
     46400  -105630.73      1.8726775     -105628.86      467.34398      43556.587      497.97437    
     46500  -105630.49      1.4672293     -105629.03      366.16065      42474.571      497.97437    
     46600  -105630.78      1.5171814     -105629.27      378.62665      40201.211      497.97437    
     46700  -105630.43      0.92104255    -105629.51      229.85469      41659.426      497.97437    
     46800  -105630.9       1.3461139     -105629.55      335.93516      39876.76       497.97437    
     46900  -105630.82      1.359634      -105629.46      339.30924      40516.199      497.97437    
     47000  -105630.74      1.6510368     -105629.09      412.0315       42209.289      497.97437    
     47100  -105630.23      1.53228       -105628.7       382.39465      45811.276      497.97437    
     47200  -105629.91      1.350986      -105628.56      337.15106      49934.227      497.97437    
     47300  -105630.18      1.7658892     -105628.41      440.69398      48203.821      497.97437    
     47400  -105630.49      2.1390013     -105628.36      533.80754      45338.758      497.97437    
     47500  -105630.32      1.7356044     -105628.59      433.13612      45958.847      497.97437    
     47600  -105630.09      1.2923008     -105628.8       322.50563      48143.668      497.97437    
     47700  -105630.47      1.594581      -105628.87      397.94244      47393.779      497.97437    
     47800  -105630.32      1.4117432     -105628.91      352.31356      46660.27       497.97437    
     47900  -105630.67      1.7890584     -105628.88      446.47607      40721.141      497.97437    
     48000  -105630.57      1.6481166     -105628.93      411.30275      42167.588      497.97437    
     48100  -105630.29      1.2457417     -105629.05      310.88637      46210.145      497.97437    
     48200  -105630.45      1.3454607     -105629.11      335.77216      45101.478      497.97437    
     48300  -105630.58      1.5079991     -105629.08      376.33513      42125.147      497.97437    
     48400  -105630.75      1.7871018     -105628.97      445.98778      39601.749      497.97437    
     48500  -105630.23      1.3573418     -105628.87      338.73719      45175.463      497.97437    
     48600  -105630.22      1.5379777     -105628.68      383.81657      48554.225      497.97437    
     48700  -105630.25      1.8500767     -105628.4       461.70375      47365.535      497.97437    
     48800  -105629.94      1.6550959     -105628.29      413.04449      48760.975      497.97437    
     48900  -105630.27      2.0180123     -105628.25      503.61363      46852.101      497.97437    
     49000  -105630.03      1.6219736     -105628.41      404.7785       48301.76       497.97437    
     49100  -105630.08      1.4830575     -105628.59      370.11072      51956.307      497.97437    
     49200  -105630.51      1.7321119     -105628.78      432.26455      43389.813      497.97437    
     49300  -105630.49      1.4319071     -105629.06      357.34565      43508.93       497.97437    
     49400  -105630.73      1.4305769     -105629.3       357.01368      41674.36       497.97437    
     49500  -105630.61      1.2168063     -105629.39      303.66527      43253.789      497.97437    
     49600  -105630.78      1.4263215     -105629.35      355.95172      39815.121      497.97437    
     49700  -105630.52      1.2421561     -105629.28      309.99154      43709.149      497.97437    
     49800  -105630.64      1.5246285     -105629.12      380.48515      42244.542      497.97437    
     49900  -105630.45      1.5253494     -105628.92      380.66505      44052.298      497.97437    
     50000  -105630.27      1.5456322     -105628.73      385.7268       46176.008      497.97437    
     50100  -105630.17      1.63734       -105628.54      408.61333      48920.276      497.97437    
     50200  -105630.28      1.8804016     -105628.4       469.2716       46220.515      497.97437    
     50300  -105630.21      1.8161506     -105628.4       453.23718      47466.15       497.97437    
     50400  -105629.89      1.3956508     -105628.5       348.29758      48852.884      497.97437    
     50500  -105630.42      1.8468345     -105628.58      460.89462      45554.946      497.97437    
     50600  -105630.38      1.5097717     -105628.87      376.77748      45672.314      497.97437    
     50700  -105630.59      1.4147849     -105629.17      353.07265      44610.966      497.97437    
     50800  -105630.68      1.3770927     -105629.31      343.66623      40670.732      497.97437    
     50900  -105630.74      1.429946      -105629.31      356.85625      42849.229      497.97437    
     51000  -105630.42      1.1820945     -105629.24      295.00261      46307.717      497.97437    
     51100  -105630.75      1.6956569     -105629.05      423.16686      42207.242      497.97437    
     51200  -105630.2       1.2896586     -105628.91      321.84623      45622.453      497.97437    
     51300  -105630.6       1.8266655     -105628.77      455.86127      45633.323      497.97437    
     51400  -105630.16      1.4272682     -105628.73      356.18798      48355.165      497.97437    
     51500  -105630.37      1.6901864     -105628.68      421.80165      44342.976      497.97437    
     51600  -105630.28      1.6248205     -105628.65      405.48899      45162.749      497.97437    
     51700  -105630.28      1.6394927     -105628.64      409.15056      46811.599      497.97437    
     51800  -105630.52      1.8534931     -105628.67      462.55635      44439.094      497.97437    
     51900  -105630.06      1.217332      -105628.85      303.79645      51913.268      497.97437    
     52000  -105630.35      1.3313361     -105629.02      332.24724      47994.562      497.97437    
     52100  -105630.94      1.7204851     -105629.22      429.36297      39727.071      497.97437    
     52200  -105630.79      1.2827141     -105629.5       320.11316      39214.614      497.97437    
     52300  -105630.59      1.0051214     -105629.58      250.83735      42370.893      497.97437    
     52400  -105630.79      1.3271965     -105629.47      331.21416      39447.374      497.97437    
     52500  -105630.86      1.6108668     -105629.25      402.0067       42281.26       497.97437    
     52600  -105630.33      1.2046792     -105629.12      300.63884      47652.14       497.97437    
     52700  -105630.35      1.3628435     -105628.98      340.1102       45176.368      497.97437    
     52800  -105630.61      1.786349      -105628.83      445.79992      43137.276      497.97437    
     52900  -105630.35      1.5740132     -105628.78      392.80955      50278.543      497.97437    
     53000  -105630.15      1.4144177     -105628.73      352.98102      48423.046      497.97437    
     53100  -105630.56      1.954659      -105628.6       487.80322      44663.757      497.97437    
     53200  -105630.06      1.475511      -105628.58      368.22742      49050.275      497.97437    
     53300  -105630.28      1.750375      -105628.53      436.82226      51153.714      497.97437    
     53400  -105630.2       1.7373432     -105628.46      433.57007      45625.395      497.97437    
     53500  -105630.04      1.610114      -105628.43      401.81883      46858.039      497.97437    
     53600  -105630.27      1.8526157     -105628.42      462.33739      48773.015      497.97437    
     53700  -105630.35      1.8177086     -105628.54      453.62599      48220.827      497.97437    
     53800  -105630.21      1.4306107     -105628.78      357.02213      44033.336      497.97437    
     53900  -105630.36      1.4491481     -105628.91      361.64832      44580.134      497.97437    
     54000  -105630.65      1.6306574     -105629.02      406.94564      42780.438      497.97437    
     54100  -105630.6       1.4803471     -105629.12      369.4343       42174.255      497.97437    
     54200  -105630.63      1.419271      -105629.21      354.19221      43028.179      497.97437    
     54300  -105630.17      0.94675011    -105629.22      236.27024      46288.805      497.97437    
     54400  -105630.99      2.1174842     -105628.88      528.43776      39359.044      497.97437    
     54500  -105630.25      1.6494936     -105628.6       411.64638      46028.091      497.97437    
     54600  -105629.94      1.4611973     -105628.48      364.6553       48673.218      497.97437    
     54700  -105630.02      1.6875207     -105628.33      421.13639      48720.694      497.97437    
     54800  -105630.33      2.0859601     -105628.24      520.57064      47987.663      497.97437    
     54900  -105630.2       1.8079332     -105628.39      451.18644      48647.092      497.97437    
     55000  -105630.12      1.5369658     -105628.58      383.56404      48194.23       497.97437    
     55100  -105630.41      1.7332316     -105628.68      432.54396      44296.486      497.97437    
     55200  -105630.23      1.4871474     -105628.74      371.13138      47902.864      497.97437    
     55300  -105630.52      1.7720694     -105628.74      442.23632      43164.247      497.97437    
     55400  -105630.45      1.6435592     -105628.81      410.16541      45131.918      497.97437    
     55500  -105630.11      1.2423603     -105628.87      310.04251      46731.7        497.97437    
     55600  -105630.48      1.6856633     -105628.8       420.67286      46594.173      497.97437    
     55700  -105630.62      1.9127505     -105628.71      477.34458      43116.32       497.97437    
     55800  -105630.15      1.4060519     -105628.75      350.89326      48046.008      497.97437    
     55900  -105630.22      1.4807497     -105628.74      369.53477      47036.89       497.97437    
     56000  -105630.46      1.8220969     -105628.64      454.72114      43686.274      497.97437    
     56100  -105630.26      1.6918736     -105628.57      422.2227       47505.612      497.97437    
     56200  -105630.26      1.7108587     -105628.55      426.96061      48316.374      497.97437    
     56300  -105630.06      1.4918144     -105628.57      372.29608      47304.734      497.97437    
     56400  -105630.42      1.8430694     -105628.58      459.95502      46951.363      497.97437    
     56500  -105630.17      1.4867213     -105628.68      371.02505      49096.235      497.97437    
     56600  -105630.45      1.6407211     -105628.81      409.45712      42756.896      497.97437    
     56700  -105630.36      1.3918003     -105628.97      347.33665      43335.129      497.97437    
     56800  -105630.75      1.6337574     -105629.11      407.71926      42473.024      497.97437    
     56900  -105630.48      1.21196       -105629.26      302.45583      44454.911      497.97437    
     57000  -105630.65      1.347275      -105629.3       336.22494      41795.638      497.97437    
     57100  -105630.67      1.4730916     -105629.2       367.62363      41424.858      497.97437    
     57200  -105630.43      1.5383187     -105628.89      383.90167      46761.364      497.97437    
     57300  -105630.4       1.8438466     -105628.55      460.14898      47811.144      497.97437    
     57400  -105629.9       1.4728782     -105628.43      367.57037      47787.117      497.97437    
     57500  -105630.19      1.8492767     -105628.34      461.5041       46731.546      497.97437    
     57600  -105630.17      1.8276086     -105628.35      456.09662      49555.236      497.97437    
     57700  -105630.37      1.8601688     -105628.51      464.22233      47922.825      497.97437    
     57800  -105630.15      1.3886491     -105628.76      346.55022      46129.305      497.97437    
     57900  -105630.59      1.6878156     -105628.9       421.21         44808.383      497.97437    
     58000  -105630.39      1.3905921     -105629         347.03511      45965.266      497.97437    
     58100  -105630.71      1.6911436     -105629.02      422.04053      43560.624      497.97437    
     58200  -105630.28      1.2696062     -105629.01      316.84196      44162.617      497.97437    
     58300  -105630.61      1.6645631     -105628.94      415.40712      43062.014      497.97437    
     58400  -105630.4       1.5044434     -105628.9       375.44776      46955.833      497.97437    
     58500  -105630.35      1.5208462     -105628.83      379.54124      46447.081      497.97437    
     58600  -105630.42      1.6821204     -105628.74      419.78871      44740.835      497.97437    
     58700  -105630.14      1.4799357     -105628.66      369.33165      48752.402      497.97437    
     58800  -105630.6       2.0939098     -105628.51      522.55456      44864.317      497.97437    
     58900  -105629.88      1.3959365     -105628.48      348.36887      50481.523      497.97437    
     59000  -105630.3       1.913823      -105628.38      477.61222      47364.743      497.97437    
     59100  -105630         1.7044085     -105628.29      425.35091      47736.584      497.97437    
     59200  -105630.33      2.0249176     -105628.3       505.33692      45970.769      497.97437    
     59300  -105630.02      1.526246      -105628.49      380.88881      49709.686      497.97437    
     59400  -105630.33      1.6408045     -105628.69      409.47794      46724.225      497.97437    
     59500  -105630.41      1.5329556     -105628.88      382.56325      45651.421      497.97437    
     59600  -105630.56      1.5394606     -105629.02      384.18663      42368.409      497.97437    
     59700  -105630.55      1.4281261     -105629.12      356.40207      43042.143      497.97437    
     59800  -105630.55      1.4055003     -105629.15      350.75559      41702.87       497.97437    
     59900  -105630.5       1.4292327     -105629.07      356.67823      44880.121      497.97437    
     60000  -105630.4       1.6244814     -105628.77      405.40434      44913.527      497.97437    
     60100  -105630.41      2.0414377     -105628.37      509.45965      43394.529      497.97437    
     60200  -105629.71      1.4205706     -105628.29      354.51654      51645.37       497.97437    
     60300  -105630.02      1.8081625     -105628.21      451.24367      49999.552      497.97437    
     60400  -105630.11      1.8909225     -105628.22      471.89721      46901.452      497.97437    
     60500  -105630.33      1.9050255     -105628.43      475.41674      47009.827      497.97437    
     60600  -105630.32      1.5801822     -105628.74      394.34907      44616.342      497.97437    
     60700  -105630.27      1.3861666     -105628.88      345.9307       46891.359      497.97437    
     60800  -105630.52      1.6329092     -105628.89      407.50759      46194.686      497.97437    
     60900  -105630.3       1.4124027     -105628.88      352.47815      46971.464      497.97437    
     61000  -105630.61      1.7800351     -105628.83      444.22422      42581.021      497.97437    
     61100  -105630.41      1.5854547     -105628.83      395.66489      44939.104      497.97437    
     61200  -105630.11      1.2866445     -105628.82      321.09404      48241.683      497.97437    
     61300  -105630.67      2.0363764     -105628.63      508.19657      44401.041      497.97437    
     61400  -105629.89      1.4293752     -105628.46      356.7138       48317.256      497.97437    
     61500  -105630.36      2.2178321     -105628.14      553.48051      45551.363      497.97437    
     61600  -105629.69      1.7171966     -105627.98      428.5423       52715.31       497.97437    
     61700  -105629.75      1.8008191     -105627.95      449.41105      54919.23       497.97437    
     61800  -105630.08      2.0010031     -105628.08      499.36883      51804.287      497.97437    
     61900  -105630.01      1.5324402     -105628.48      382.43462      47543.91       497.97437    
     62000  -105630.75      1.9231234     -105628.82      479.93324      40304.744      497.97437    
     62100  -105630.39      1.3736196     -105629.02      342.79947      46149.506      497.97437    
     62200  -105630.29      1.2640002     -105629.03      315.44295      46833.121      497.97437    
     62300  -105630.56      1.6541045     -105628.91      412.79708      45136.265      497.97437    
     62400  -105630.52      1.7429789     -105628.78      434.9765       43251.917      497.97437    
     62500  -105630.09      1.3860922     -105628.7       345.91214      46854.925      497.97437    
     62600  -105630.35      1.8262936     -105628.52      455.76845      45039.155      497.97437    
     62700  -105630.23      1.8662351     -105628.36      465.73624      47791.016      497.97437    
     62800  -105630         1.6978972     -105628.3       423.72595      50357.994      497.97437    
     62900  -105630.03      1.7450181     -105628.29      435.48541      53695.429      497.97437    
     63000  -105630.25      1.8948132     -105628.36      472.86814      47489.464      497.97437    
     63100  -105630.23      1.59087       -105628.64      397.01632      48560.491      497.97437    
     63200  -105630.36      1.4786688     -105628.88      369.01547      45563.616      497.97437    
     63300  -105630.58      1.5343204     -105629.05      382.90385      43125.627      497.97437    
     63400  -105630.56      1.4314443     -105629.12      357.23017      42302.12       497.97437    
     63500  -105630.64      1.5010022     -105629.14      374.58897      44061.905      497.97437    
     63600  -105630.46      1.3686009     -105629.09      341.547        46563.334      497.97437    
     63700  -105630.54      1.6703559     -105628.87      416.85275      44481.839      497.97437    
     63800  -105630.07      1.5086002     -105628.56      376.48512      49718.558      497.97437    
     63900  -105630.07      1.778664      -105628.29      443.88206      49535.061      497.97437    
     64000  -105630.14      1.9137387     -105628.23      477.59118      48960.094      497.97437    
     64100  -105630.08      1.7726634     -105628.31      442.38455      49062.813      497.97437    
     64200  -105630.24      1.7794867     -105628.46      444.08737      47261.58       497.97437    
     64300  -105630.19      1.5547909     -105628.64      388.01245      49155.76       497.97437    
     64400  -105630.4       1.6319058     -105628.77      407.25718      46841.258      497.97437    
     64500  -105630.44      1.5744946     -105628.87      392.92968      46881.004      497.97437    
     64600  -105630.49      1.5499614     -105628.94      386.80721      44242.1        497.97437    
     64700  -105630.5       1.5083392     -105628.99      376.42         45540.529      497.97437    
     64800  -105630.32      1.3380511     -105628.98      333.92303      44831.593      497.97437    
     64900  -105630.69      1.9817396     -105628.71      494.56145      40575.71       497.97437    
     65000  -105630.05      1.7757471     -105628.27      443.15412      48459.275      497.97437    
     65100  -105629.89      1.8688223     -105628.02      466.38189      52670.474      497.97437    
     65200  -105629.55      1.6119275     -105627.94      402.27141      52790.549      497.97437    
     65300  -105630.22      2.2800751     -105627.94      569.01381      50578.691      497.97437    
     65400  -105630.09      1.7678091     -105628.32      441.17311      51103.255      497.97437    
     65500  -105630.19      1.6057185     -105628.58      400.72189      49618.886      497.97437    
     65600  -105630.5       1.7697959     -105628.73      441.66893      45619.781      497.97437    
     65700  -105630.11      1.2823676     -105628.83      320.0267       48312.886      497.97437    
     65800  -105630.6       1.7906483     -105628.81      446.87283      45888.294      497.97437    
     65900  -105630.52      1.6679574     -105628.85      416.25419      46126.513      497.97437    
     66000  -105630.15      1.2243147     -105628.93      305.53904      48040.744      497.97437    
     66100  -105630.48      1.6133157     -105628.87      402.61785      46905.667      497.97437    
     66200  -105630.62      1.9429926     -105628.68      484.89177      41809.341      497.97437    
     66300  -105630.13      1.543838      -105628.59      385.27905      49780.144      497.97437    
     66400  -105630.04      1.6170989     -105628.42      403.56198      51973.865      497.97437    
     66500  -105630.07      1.9002641     -105628.17      474.22848      52647.508      497.97437    
     66600  -105629.89      1.8751674     -105628.02      467.96537      51690.936      497.97437    
     66700  -105629.94      1.9019002     -105628.04      474.63677      52650.061      497.97437    
     66800  -105629.98      1.700409      -105628.28      424.3528       50149.322      497.97437    
     66900  -105630.39      1.7562687     -105628.63      438.2931       44572.202      497.97437    
     67000  -105630.47      1.5626546     -105628.91      389.9749       43559.472      497.97437    
     67100  -105630.51      1.5102493     -105629         376.89667      44667.079      497.97437    
     67200  -105630.47      1.4694562     -105629         366.71639      44727.701      497.97437    
     67300  -105630.55      1.5865132     -105628.96      395.92905      45048.37       497.97437    
     67400  -105630.16      1.2721672     -105628.89      317.48108      46970.671      497.97437    
     67500  -105630.47      1.8202404     -105628.65      454.25782      44922.247      497.97437    
     67600  -105630.36      1.8949691     -105628.46      472.90705      44882.28       497.97437    
     67700  -105630.01      1.5938794     -105628.41      397.76736      46804.397      497.97437    
     67800  -105630.05      1.6687642     -105628.38      416.45553      49084.686      497.97437    
     67900  -105630.23      1.9128392     -105628.32      477.36672      46354.817      497.97437    
     68000  -105630.23      1.7724194     -105628.46      442.32366      49228.576      497.97437    
     68100  -105630.11      1.3810925     -105628.73      344.6644       46036.793      497.97437    
     68200  -105630.61      1.6788894     -105628.93      418.98236      41732.281      497.97437    
     68300  -105630.41      1.3111066     -105629.09      327.19878      44195.849      497.97437    
     68400  -105630.74      1.5955925     -105629.15      398.19487      41681.524      497.97437    
     68500  -105630.66      1.4834108     -105629.18      370.19887      40481.053      497.97437    
     68600  -105630.27      1.1114461     -105629.16      277.37164      45588.339      497.97437    
     68700  -105630.57      1.6566347     -105628.92      413.42851      44265.702      497.97437    
     68800  -105630.51      1.9188965     -105628.59      478.87836      43714.712      497.97437    
     68900  -105629.94      1.4006735     -105628.53      349.55103      50707.6        497.97437    
     69000  -105630.23      1.7783794     -105628.45      443.81102      48377.989      497.97437    
     69100  -105630.09      1.6523336     -105628.43      412.35512      49077.721      497.97437    
     69200  -105630.3       1.8202609     -105628.47      454.26293      47132.633      497.97437    
     69300  -105630.3       1.6503899     -105628.65      411.87006      45072.372      497.97437    
     69400  -105630.37      1.4371242     -105628.94      358.64763      44630.132      497.97437    
     69500  -105630.68      1.4644895     -105629.21      365.4769       43089.341      497.97437    
     69600  -105630.56      1.2280717     -105629.33      306.47665      43184.681      497.97437    
     69700  -105630.73      1.4352529     -105629.3       358.18062      40995.734      497.97437    
     69800  -105630.62      1.3973918     -105629.22      348.73203      40235.9        497.97437    
     69900  -105630.58      1.4668832     -105629.11      366.07426      43600.062      497.97437    
     70000  -105630.27      1.2893168     -105628.98      321.76094      45766.569      497.97437    
     70100  -105630.56      1.8094977     -105628.75      451.57688      42547.003      497.97437    
     70200  -105630.33      1.6804664     -105628.65      419.37593      46536.541      497.97437    
     70300  -105630.18      1.5560778     -105628.62      388.3336       48516.026      497.97437    
     70400  -105630.1       1.5316986     -105628.57      382.24955      49961.934      497.97437    
     70500  -105630.43      1.9234699     -105628.5       480.01971      44816.655      497.97437    
     70600  -105630.26      1.6849871     -105628.58      420.50411      48722.472      497.97437    
     70700  -105630.12      1.3070139     -105628.81      326.17742      46795.719      497.97437    
     70800  -105630.74      1.6359993     -105629.11      408.27876      42064.74       497.97437    
     70900  -105630.52      1.1977242     -105629.32      298.90314      42859.191      497.97437    
     71000  -105630.77      1.4285541     -105629.34      356.5089       41025.657      497.97437    
     71100  -105630.78      1.5086522     -105629.27      376.49812      41712.586      497.97437    
     71200  -105630.47      1.3118217     -105629.16      327.37725      44348.591      497.97437    
     71300  -105630.33      1.3976507     -105628.93      348.79665      49638.695      497.97437    
     71400  -105630.44      1.7472991     -105628.69      436.05464      48114.555      497.97437    
     71500  -105630.2       1.5846443     -105628.62      395.46264      46608.893      497.97437    
     71600  -105630.3       1.6981871     -105628.6       423.7983       46480.962      497.97437    
     71700  -105630.34      1.7179977     -105628.62      428.74222      49578.226      497.97437    
     71800  -105630.09      1.4051404     -105628.68      350.66579      49137.941      497.97437    
     71900  -105630.36      1.6642822     -105628.69      415.33702      45389.97       497.97437    
     72000  -105630.45      1.7264677     -105628.72      430.85597      46338.275      497.97437    
     72100  -105630.37      1.515794      -105628.85      378.28042      46146.97       497.97437    
     72200  -105630.45      1.4205911     -105629.03      354.52164      44836.368      497.97437    
     72300  -105630.63      1.441576      -105629.18      359.75862      40584.086      497.97437    
     72400  -105630.6       1.3087974     -105629.29      326.6225       43058.411      497.97437    
     72500  -105630.76      1.4565564     -105629.3       363.49711      42321.86       497.97437    
     72600  -105630.55      1.3398936     -105629.21      334.38284      41846.789      497.97437    
     72700  -105630.44      1.5212773     -105628.92      379.64881      43241.124      497.97437    
     72800  -105630.27      1.6794117     -105628.59      419.11271      47772.825      497.97437    
     72900  -105630.22      1.7671398     -105628.46      441.00608      48422.304      497.97437    
     73000  -105630.26      1.8173409     -105628.45      453.53423      46013.832      497.97437    
     73100  -105629.9       1.3931798     -105628.51      347.6809       48627.536      497.97437    
     73200  -105630.43      1.9064411     -105628.53      475.77002      47505.097      497.97437    
     73300  -105630.24      1.5584665     -105628.68      388.92972      47531.348      497.97437    
     73400  -105630.61      1.6951576     -105628.92      423.04225      42726.116      497.97437    
     73500  -105630.35      1.1536369     -105629.2       287.90075      45676.295      497.97437    
     73600  -105630.7       1.4446159     -105629.26      360.51725      42882.629      497.97437    
     73700  -105630.78      1.5458704     -105629.23      385.78625      41715.048      497.97437    
     73800  -105630.43      1.2416965     -105629.19      309.87686      44799.142      497.97437    
     73900  -105630.57      1.5059316     -105629.07      375.81916      43447.816      497.97437    
     74000  -105630.41      1.4408071     -105628.96      359.56674      46311.699      497.97437    
[...]
    181900  -105630.07      1.718718      -105628.35      428.92198      51120.196      497.97437    
    182000  -105630.37      2.0014142     -105628.37      499.47142      46158.177      497.97437    
    182100  -105630.16      1.5686215     -105628.59      391.464        48745.209      497.97437    
    182200  -105630.31      1.4857249     -105628.82      370.77639      47706.849      497.97437    
    182300  -105630.71      1.6079995     -105629.1       401.29114      42983.606      497.97437    
    182400  -105630.47      1.0866301     -105629.38      271.17859      41967.156      497.97437    
    182500  -105630.86      1.4086498     -105629.45      351.54158      41944.207      497.97437    
    182600  -105630.78      1.3505161     -105629.43      337.03379      41330.722      497.97437    
    182700  -105630.71      1.3597961     -105629.35      339.34969      43214.531      497.97437    
    182800  -105630.4       1.2183247     -105629.18      304.04419      46632.961      497.97437    
    182900  -105630.4       1.4657756     -105628.93      365.79787      45502.82       497.97437    
    183000  -105630.7       2.0333074     -105628.66      507.43067      44551.467      497.97437    
    183100  -105630.12      1.4884884     -105628.63      371.46604      51500.497      497.97437    
    183200  -105629.99      1.4160883     -105628.58      353.39794      51934.624      497.97437    
    183300  -105630.26      1.8417431     -105628.42      459.62402      48838.366      497.97437    
    183400  -105630.4       2.0247587     -105628.37      505.29726      51463.77       497.97437    
    183500  -105629.78      1.299787      -105628.48      324.37388      50167.508      497.97437    
    183600  -105630.65      2.0480869     -105628.6       511.11903      42562.521      497.97437    
    183700  -105630.26      1.339855      -105628.92      334.37321      47160.711      497.97437    
    183800  -105630.51      1.4161079     -105629.1       353.40281      45600.088      497.97437    
    183900  -105630.62      1.4703287     -105629.15      366.93412      41789.607      497.97437    
    184000  -105630.63      1.4871882     -105629.14      371.14158      41645.417      497.97437    
    184100  -105630.53      1.4470069     -105629.09      361.11394      44586.281      497.97437    
    184200  -105630.46      1.5039217     -105628.96      375.31758      44911.244      497.97437    
    184300  -105630.28      1.499308      -105628.79      374.16618      47850.877      497.97437    
    184400  -105630.36      1.8298493     -105628.54      456.65582      50014.885      497.97437    
    184500  -105630.04      1.6043087     -105628.44      400.37007      51266.243      497.97437    
    184600  -105630.35      1.9141373     -105628.44      477.69066      46854.136      497.97437    
    184700  -105629.99      1.4710126     -105628.52      367.1048       51401.098      497.97437    
    184800  -105630.24      1.6971544     -105628.54      423.54058      49588.433      497.97437    
    184900  -105630.55      1.9163968     -105628.63      478.25454      43889.055      497.97437    
    185000  -105630.33      1.4616303     -105628.87      364.76337      48425.798      497.97437    
    185100  -105630.39      1.387615      -105629.01      346.29214      46228.548      497.97437    
    185200  -105630.58      1.521153      -105629.06      379.6178       43660.52       497.97437    
    185300  -105630.55      1.4741492     -105629.07      367.88757      43402.038      497.97437    
    185400  -105630.62      1.6076412     -105629.01      401.20173      44288.863      497.97437    
    185500  -105630.4       1.5344009     -105628.87      382.92395      45928.101      497.97437    
    185600  -105630.22      1.6476532     -105628.57      411.18709      47513.442      497.97437    
    185700  -105630.06      1.7978926     -105628.26      448.68071      51128.603      497.97437    
    185800  -105629.86      1.7175838     -105628.14      428.63892      54279.543      497.97437    
    185900  -105630.31      2.1664647     -105628.14      540.6613       47236.303      497.97437    
    186000  -105629.99      1.5943278     -105628.4       397.87924      52391.291      497.97437    
    186100  -105630.17      1.5962642     -105628.57      398.36249      50594.049      497.97437    
    186200  -105630.49      1.7844162     -105628.71      445.31756      48057.52       497.97437    
    186300  -105630.37      1.5557703     -105628.81      388.25686      46402.873      497.97437    
    186400  -105630.49      1.6152854     -105628.87      403.10942      45663.27       497.97437    
    186500  -105630.32      1.4235121     -105628.9       355.25062      43967.25       497.97437    
    186600  -105630.58      1.7203368     -105628.86      429.32596      43930.225      497.97437    
    186700  -105630.49      1.6291234     -105628.86      406.56281      45190.284      497.97437    
    186800  -105630.17      1.2997129     -105628.87      324.35538      49789.737      497.97437    
    186900  -105630.63      1.9453932     -105628.69      485.49087      44434.201      497.97437    
    187000  -105630.06      1.6864687     -105628.37      420.87385      50562.597      497.97437    
    187100  -105629.83      1.7588284     -105628.07      438.9319       53208.961      497.97437    
    187200  -105630.09      2.2271556     -105627.86      555.80727      51799.19       497.97437    
    187300  -105629.85      1.8533689     -105628         462.52536      53777.596      497.97437    
    187400  -105629.91      1.6878984     -105628.23      421.23066      52639.147      497.97437    
    187500  -105630.14      1.723464      -105628.42      430.10638      48622.959      497.97437    
    187600  -105630.51      1.9234466     -105628.59      480.01389      43602.589      497.97437    
    187700  -105630.3       1.5254692     -105628.78      380.69495      48392.127      497.97437    
    187800  -105630.21      1.3861422     -105628.83      345.9246       50745.927      497.97437    
    187900  -105630.56      1.7661071     -105628.8       440.74836      44089.826      497.97437    
    188000  -105630.36      1.5315387     -105628.83      382.20964      47895.803      497.97437    
    188100  -105630.31      1.4845334     -105628.83      370.47903      46200.457      497.97437    
    188200  -105630.48      1.7218465     -105628.76      429.70273      46661.459      497.97437    
    188300  -105630.22      1.5693868     -105628.65      391.655        47160.249      497.97437    
    188400  -105630.2       1.7600355     -105628.44      439.23313      50155.65       497.97437    
    188500  -105630.14      1.9404628     -105628.2       484.26043      50238.577      497.97437    
    188600  -105630.08      1.9532896     -105628.13      487.46147      49797.421      497.97437    
    188700  -105629.77      1.5286217     -105628.24      381.48168      53020.888      497.97437    
    188800  -105630.21      1.8196443     -105628.39      454.10907      50450.79       497.97437    
    188900  -105630.49      1.7407877     -105628.75      434.42967      46410.547      497.97437    
    189000  -105630.66      1.5999068     -105629.06      399.27153      44717.327      497.97437    
    189100  -105630.32      1.1596466     -105629.16      289.40053      47778.894      497.97437    
    189200  -105630.55      1.4613264     -105629.09      364.68752      45330.157      497.97437    
    189300  -105630.71      1.7586201     -105628.95      438.8799       42631.006      497.97437    
    189400  -105630.28      1.4000744     -105628.88      349.40151      47833.73       497.97437    
    189500  -105630.41      1.6717516     -105628.74      417.20107      47795.696      497.97437    
    189600  -105630.11      1.5356204     -105628.58      383.22828      49921.228      497.97437    
    189700  -105630.15      1.7977878     -105628.35      448.65458      49513.13       497.97437    
    189800  -105630.3       2.1431325     -105628.15      534.83853      48167.938      497.97437    
    189900  -105629.68      1.4780826     -105628.2       368.86918      55374.334      497.97437    
    190000  -105630.06      1.7103094     -105628.35      426.82353      52804.687      497.97437    
    190100  -105630.4       1.6425469     -105628.76      409.91276      46814.637      497.97437    
    190200  -105630.69      1.6002616     -105629.09      399.36007      43027.849      497.97437    
    190300  -105630.6       1.3492079     -105629.26      336.70732      44599.844      497.97437    
    190400  -105630.59      1.3159452     -105629.27      328.4063       45010.991      497.97437    
    190500  -105630.58      1.4206569     -105629.16      354.53807      44991.344      497.97437    
    190600  -105630.43      1.4702923     -105628.96      366.92505      49446.46       497.97437    
    190700  -105630.39      1.6653009     -105628.72      415.59124      47172.808      497.97437    
    190800  -105630.4       1.8376289     -105628.57      458.5973       45520.424      497.97437    
    190900  -105629.88      1.3394902     -105628.54      334.28217      53139.907      497.97437    
    191000  -105630.23      1.7730611     -105628.46      442.48379      52034.241      497.97437    
    191100  -105630.16      1.7444781     -105628.42      435.35063      49135.434      497.97437    
    191200  -105630.59      2.0576336     -105628.53      513.50148      45331.013      497.97437    
    191300  -105630         1.1369341     -105628.86      283.73243      51242.975      497.97437    
    191400  -105630.54      1.5145007     -105629.03      377.95764      46007.692      497.97437    
    191500  -105630.59      1.4792939     -105629.11      369.17147      44891.525      497.97437    
    191600  -105630.82      1.6920198     -105629.12      422.25918      43032.403      497.97437    
    191700  -105630.46      1.3253256     -105629.14      330.74726      46825.285      497.97437    
    191800  -105630.4       1.3359749     -105629.06      333.4049       47515.011      497.97437    
    191900  -105630.49      1.5889307     -105628.9       396.53235      47211.324      497.97437    
    192000  -105630.18      1.4318267     -105628.75      357.3256       48428.882      497.97437    
    192100  -105630.81      2.2304586     -105628.58      556.63157      42915.528      497.97437    
    192200  -105629.95      1.2891001     -105628.66      321.70685      50702.967      497.97437    
    192300  -105630.13      1.4859094     -105628.64      370.82244      51228.653      497.97437    
    192400  -105630.21      1.6684372     -105628.54      416.37394      47371.819      497.97437    
    192500  -105630.47      2.0150768     -105628.45      502.88104      46174.175      497.97437    
    192600  -105630.29      1.7497154     -105628.54      436.65767      47311.541      497.97437    
    192700  -105630.25      1.389116      -105628.86      346.66675      48551.042      497.97437    
    192800  -105630.27      1.2236907     -105629.05      305.38333      46885.209      497.97437    
    192900  -105630.75      1.6652482     -105629.09      415.5781       42339.949      497.97437    
    193000  -105630.78      1.6280204     -105629.15      406.28754      42648.979      497.97437    
    193100  -105630.58      1.3555995     -105629.23      338.30238      45046.476      497.97437    
    193200  -105630.3       1.0907407     -105629.21      272.20444      47678.183      497.97437    
    193300  -105630.44      1.4774829     -105628.97      368.71951      46799.525      497.97437    
    193400  -105630.66      2.0261513     -105628.63      505.6448       46247.104      497.97437    
    193500  -105630.09      1.4919692     -105628.6       372.3347       50780.608      497.97437    
    193600  -105630.29      1.7203172     -105628.57      429.32108      45881.943      497.97437    
    193700  -105630.07      1.5030914     -105628.57      375.11036      52261.858      497.97437    
    193800  -105630.06      1.5119845     -105628.54      377.32971      53953.03       497.97437    
    193900  -105630.52      2.0677171     -105628.45      516.01793      45735.436      497.97437    
    194000  -105630.51      1.9300136     -105628.58      481.65274      44388.16       497.97437    
    194100  -105630.12      1.2025437     -105628.91      300.10591      49219.379      497.97437    
    194200  -105630.45      1.4092039     -105629.04      351.67986      46504.492      497.97437    
    194300  -105630.48      1.4197047     -105629.06      354.30043      44411.074      497.97437    
    194400  -105630.79      1.7793951     -105629.02      444.0645       43291.024      497.97437    
    194500  -105630.4       1.3950836     -105629.01      348.15601      45990.171      497.97437    
    194600  -105630.53      1.613565      -105628.92      402.68005      44210.469      497.97437    
    194700  -105630.07      1.4395919     -105628.63      359.26346      50040.784      497.97437    
    194800  -105629.94      1.6837783     -105628.26      420.20245      52543.196      497.97437    
    194900  -105630.44      2.3493454     -105628.09      586.30087      48179.09       497.97437    
    195000  -105630         1.6993206     -105628.3       424.08117      51744.805      497.97437    
    195100  -105629.86      1.3830898     -105628.48      345.16284      53644.489      497.97437    
    195200  -105630.09      1.5608026     -105628.53      389.51271      48009.908      497.97437    
    195300  -105630.81      2.1975845     -105628.61      548.42754      42449.792      497.97437    
    195400  -105630.56      1.5620057     -105629         389.81297      45079.408      497.97437    
    195500  -105630.25      1.0917256     -105629.16      272.45023      50641.497      497.97437    
    195600  -105630.57      1.4690625     -105629.1       366.61813      46074.636      497.97437    
    195700  -105630.59      1.5885531     -105629         396.43812      47444.376      497.97437    
    195800  -105630.34      1.4288062     -105628.91      356.57181      50620.589      497.97437    
    195900  -105630.52      1.7454887     -105628.77      435.60285      45132.333      497.97437    
    196000  -105630.39      1.7139105     -105628.67      427.72221      46812.308      497.97437    
    196100  -105630.01      1.3770558     -105628.63      343.65701      53863.5        497.97437    
    196200  -105630.12      1.6857479     -105628.44      420.69398      49451.424      497.97437    
    196300  -105630.49      2.5245124     -105627.97      630.01543      46828.833      497.97437    
    196400  -105629.6       1.6799401     -105627.92      419.2446       54415.165      497.97437    
    196500  -105629.8       1.7838408     -105628.01      445.17396      56031.215      497.97437    
    196600  -105630.01      1.6542036     -105628.36      412.82181      49065.159      497.97437    
    196700  -105630.59      1.7870801     -105628.81      445.98236      45672.181      497.97437    
    196800  -105630.5       1.4811661     -105629.02      369.63869      44457.403      497.97437    
    196900  -105630.66      1.5609606     -105629.09      389.55216      43745.763      497.97437    
    197000  -105630.38      1.2666192     -105629.12      316.09652      44332.74       497.97437    
    197100  -105630.5       1.4912925     -105629.01      372.16584      44222.079      497.97437    
    197200  -105630.45      1.6427561     -105628.8       409.96498      44483.846      497.97437    
    197300  -105630.45      1.8463684     -105628.61      460.7783       48094.728      497.97437    
    197400  -105630.06      1.5325533     -105628.52      382.46285      47686.645      497.97437    
    197500  -105630.05      1.6235982     -105628.42      405.18396      50635.528      497.97437    
    197600  -105630.15      1.8860643     -105628.26      470.68478      50000.821      497.97437    
    197700  -105630.09      1.9385871     -105628.15      483.79234      51061.644      497.97437    
    197800  -105630.08      1.9407645     -105628.14      484.33573      49185.914      497.97437    
    197900  -105630.04      1.668038      -105628.38      416.2743       48638.012      497.97437    
    198000  -105630.27      1.6179022     -105628.66      403.76245      48272.562      497.97437    
    198100  -105630.35      1.4646387     -105628.88      365.51413      46706.382      497.97437    
    198200  -105630.53      1.5389249     -105628.99      384.05294      44116.26       497.97437    
    198300  -105630.74      1.6641772     -105629.07      415.31081      40916.486      497.97437    
    198400  -105630.37      1.2080175     -105629.16      301.47193      47257.191      497.97437    
    198500  -105630.56      1.4480154     -105629.11      361.36564      43722.249      497.97437    
    198600  -105630.5       1.6361666     -105628.87      408.3205       44195.939      497.97437    
    198700  -105630.23      1.663838      -105628.56      415.22615      48091.44       497.97437    
    198800  -105630.22      1.9084115     -105628.31      476.26173      50298.046      497.97437    
    198900  -105630.03      1.7409488     -105628.29      434.46987      52152.034      497.97437    
    199000  -105630.01      1.6760667     -105628.34      418.27793      53838.412      497.97437    
    199100  -105630.11      1.7130222     -105628.4       427.50053      50528.147      497.97437    
    199200  -105630.29      1.7835155     -105628.51      445.0928       51527.413      497.97437    
    199300  -105630.37      1.7029802     -105628.67      424.99445      46849.9        497.97437    
    199400  -105630.43      1.5984368     -105628.83      398.90469      46027.455      497.97437    
    199500  -105630.37      1.4467847     -105628.92      361.05851      49212.356      497.97437    
    199600  -105630.36      1.4455419     -105628.92      360.74834      48156.855      497.97437    
    199700  -105630.57      1.6916894     -105628.88      422.17674      44673.424      497.97437    
    199800  -105630.38      1.5120137     -105628.86      377.337        46527.548      497.97437    
    199900  -105630.36      1.5317792     -105628.83      382.26967      46091.14       497.97437    
    200000  -105630.35      1.5860192     -105628.76      395.80575      47429.698      497.97437    
Loop time of 277.959 on 2 procs for 200000 steps with 32 atoms

Performance: 31.084 ns/day, 0.772 hours/ns, 719.532 timesteps/s, 23.025 katom-step/s
97.4% CPU use with 1 MPI tasks x 2 OpenMP threads

MPI task timing breakdown:
Section |  min time  |  avg time  |  max time  |%varavg| %total
---------------------------------------------------------------
Pair    | 273.23     | 273.23     | 273.23     |   0.0 | 98.30
Neigh   | 2.8006     | 2.8006     | 2.8006     |   0.0 |  1.01
Comm    | 1.0205     | 1.0205     | 1.0205     |   0.0 |  0.37
Output  | 0.07694    | 0.07694    | 0.07694    |   0.0 |  0.03
Modify  | 0.65063    | 0.65063    | 0.65063    |   0.0 |  0.23
Other   |            | 0.1817     |            |       |  0.07

Nlocal:             32 ave          32 max          32 min
Histogram: 1 0 0 0 0 0 0 0 0 0
Nghost:            940 ave         940 max         940 min
Histogram: 1 0 0 0 0 0 0 0 0 0
Neighs:              0 ave           0 max           0 min
Histogram: 1 0 0 0 0 0 0 0 0 0
FullNghs:         4416 ave        4416 max        4416 min
Histogram: 1 0 0 0 0 0 0 0 0 0

Total # of neighbors = 4416
Ave neighs/atom = 138
Neighbor list builds = 20000
Dangerous builds not checked

write_restart   lammps.restart
System init for write_restart ...
Generated 0 of 0 mixed pair_coeff terms from geometric mixing rule
Total wall time: 0:05:30
