LAMMPS (2 Aug 2023 - Update 1)
  using 2 OpenMP thread(s) per MPI task
Loaded 1 plugins from /home/ch24d003/.conda/envs/deepmd_gpu/lib/deepmd_lmp
plugin load     libdeepmd_lmp.so

units           metal

boundary        p p p

atom_style      atomic

neighbor        2.0 bin

neigh_modify    every 10 delay 0 check no

read_data       /scratch/ch24d003/ActiveLearning_Pt/bulk/bulk.lmp
Reading data file ...
  orthogonal box = (0 0 0) to (7.8948334 7.8700436 8.0146928)
  1 by 1 by 1 MPI processor grid
  reading atoms ...
  32 atoms
  read_data CPU = 0.209 seconds

mass            1 195.084

pair_style deepmd /scratch/ch24d003/ActiveLearning_Pt/DP_models/1/graph1.pb /scratch/ch24d003/ActiveLearning_Pt/DP_models/2/graph2.pb /scratch/ch24d003/ActiveLearning_Pt/DP_models/3/graph3.pb out_file md.out out_freq 100
Summary of lammps deepmd module ...
  >>> Info of deepmd-kit:
  installed to:       /home/ch24d003/.conda/envs/deepmd_gpu
  source:             v2.2.9
  source branch:      HEAD
  source commit:      be437483
  source commit at:   2024-02-04 13:44:12 +0800
  support model ver.: 1.1 
  build variant:      cuda
  build with tf inc:  /home/ch24d003/.conda/envs/deepmd_gpu/include;/home/ch24d003/.conda/envs/deepmd_gpu/include
  build with tf lib:  /home/ch24d003/.conda/envs/deepmd_gpu/lib/libtensorflow_cc.so
  set tf intra_op_parallelism_threads: 0
  set tf inter_op_parallelism_threads: 0
  >>> Info of lammps module:
  use deepmd-kit at:  /home/ch24d003/.conda/envs/deepmd_gpu
pair_coeff      * *

velocity        all create 300 12345678

fix             1 all nvt temp 300 300 0.1

timestep        0.0005

thermo_style    custom step pe ke etotal temp press vol

thermo          100

dump            1 all dcd 100 bulk.dcd

timer timeout   03:00:00 every 100
New timer settings: style=normal  mode=nosync  timeout=03:00:00

run             200000

CITE-CITE-CITE-CITE-CITE-CITE-CITE-CITE-CITE-CITE-CITE-CITE-CITE

Your simulation uses code contributions which should be cited:

- USER-DEEPMD package:

@article{Wang_ComputPhysCommun_2018_v228_p178,
  author = {Wang, Han and Zhang, Linfeng and Han, Jiequn and E, Weinan},
  doi = {10.1016/j.cpc.2018.03.016},
  url = {https://doi.org/10.1016/j.cpc.2018.03.016},
  year = 2018,
  month = {jul},
  publisher = {Elsevier {BV}},
  volume = 228,
  journal = {Comput. Phys. Commun.},
  title = {{DeePMD-kit: A deep learning package for many-body potential energy representation and molecular dynamics}},
  pages = {178--184}
}
@misc{Zeng_JChemPhys_2023_v159_p054801,
  title  = {{DeePMD-kit v2: A software package for deep potential models}},
  author =   {Jinzhe Zeng and Duo Zhang and Denghui Lu and Pinghui Mo and Zeyu Li
         and Yixiao Chen and Mari{\'a}n Rynik and Li'ang Huang and Ziyao Li and 
         Shaochen Shi and Yingze Wang and Haotian Ye and Ping Tuo and Jiabin
         Yang and Ye Ding and Yifan Li and Davide Tisi and Qiyu Zeng and Han 
         Bao and Yu Xia and Jiameng Huang and Koki Muraoka and Yibo Wang and 
         Junhan Chang and Fengbo Yuan and Sigbj{\o}rn L{\o}land Bore and Chun
         Cai and Yinnian Lin and Bo Wang and Jiayan Xu and Jia-Xin Zhu and 
         Chenxing Luo and Yuzhi Zhang and Rhys E A Goodall and Wenshuo Liang
         and Anurag Kumar Singh and Sikai Yao and Jingchao Zhang and Renata
         Wentzcovitch and Jiequn Han and Jie Liu and Weile Jia and Darrin M
         York and Weinan E and Roberto Car and Linfeng Zhang and Han Wang},
  journal =  {J. Chem. Phys.},
  volume =   159,
  issue =    5,  
  year =    2023,
  pages  =   054801,
  doi =      {10.1063/5.0155600},
}

CITE-CITE-CITE-CITE-CITE-CITE-CITE-CITE-CITE-CITE-CITE-CITE-CITE

Generated 0 of 0 mixed pair_coeff terms from geometric mixing rule
Neighbor list info ...
  update: every = 10 steps, delay = 0 steps, check = no
  max neighbors/atom: 2000, page size: 100000
  master list distance cutoff = 8
  ghost atom cutoff = 8
  binsize = 4, bins = 2 2 3
  1 neighbor lists, perpetual/occasional/extra = 1 0 0
  (1) pair deepmd, perpetual
      attributes: full, newton on
      pair build: full/bin/atomonly
      stencil: full/bin/3d
      bin: standard
Per MPI rank memory allocation (min/avg/max) = 3.499 | 3.499 | 3.499 Mbytes
   Step         PotEng         KinEng         TotEng          Temp          Press          Volume    
         0  -105632.03      1.2021193     -105630.82      300            22340.344      497.97437    
       100  -105631.16      0.36308293    -105630.8       90.610702      33669.097      497.97437    
       200  -105631.27      0.58498092    -105630.69      145.9874       33634.732      497.97437    
       300  -105631.18      0.63565048    -105630.55      158.63246      34198.007      497.97437    
       400  -105631.46      1.1149208     -105630.35      278.2388       31694.376      497.97437    
       500  -105631.07      0.93993279    -105630.13      234.56892      36212.529      497.97437    
       600  -105630.89      0.95454569    -105629.93      238.2157       37806.615      497.97437    
       700  -105630.78      1.0780194     -105629.7       269.0297       39880.377      497.97437    
       800  -105630.62      1.1225974     -105629.5       280.15456      45326.071      497.97437    
       900  -105630.99      1.6797341     -105629.31      419.19317      37166.13       497.97437    
      1000  -105630.64      1.2998537     -105629.34      324.39051      41296.408      497.97437    
      1100  -105630.53      1.0840091     -105629.44      270.5245       44972.469      497.97437    
      1200  -105630.56      1.0736604     -105629.48      267.94189      44268.385      497.97437    
      1300  -105631.16      1.6365147     -105629.52      408.40739      34814.235      497.97437    
      1400  -105630.82      1.0808746     -105629.74      269.74226      40453.716      497.97437    
      1500  -105630.76      0.90808094    -105629.85      226.62         41943.914      497.97437    
      1600  -105631.06      1.2105078     -105629.84      302.09341      37363.455      497.97437    
      1700  -105630.83      1.0171032     -105629.81      253.82751      38998.839      497.97437    
      1800  -105630.92      1.2134138     -105629.7       302.81864      39251.886      497.97437    
      1900  -105630.94      1.4370023     -105629.5       358.61722      39226.519      497.97437    
      2000  -105630.52      1.1603772     -105629.36      289.58285      40802.571      497.97437    
      2100  -105630.36      1.1544839     -105629.2       288.11212      44605.819      497.97437    
      2200  -105630.7       1.7578196     -105628.94      438.68013      42035.444      497.97437    
      2300  -105630.61      1.6162849     -105628.99      403.35886      45044.348      497.97437    
      2400  -105630.22      1.063944      -105629.16      265.51708      47159.325      497.97437    
      2500  -105630.49      1.317355      -105629.18      328.75812      43435.808      497.97437    
      2600  -105631.03      1.733729      -105629.3       432.66812      38207.231      497.97437    
      2700  -105630.58      1.0361314     -105629.54      258.57616      43475.255      497.97437    
      2800  -105630.77      1.1431235     -105629.63      285.27703      40301.42       497.97437    
      2900  -105630.86      1.1923158     -105629.67      297.55343      38872.18       497.97437    
      3000  -105630.92      1.2059986     -105629.72      300.96811      39874.827      497.97437    
      3100  -105630.85      1.0795817     -105629.77      269.41959      39599.451      497.97437    
      3200  -105630.87      1.0918698     -105629.78      272.4862       39733.792      497.97437    
      3300  -105630.9       1.1792858     -105629.72      294.30168      39514.063      497.97437    
      3400  -105630.82      1.2239528     -105629.59      305.44874      41328.583      497.97437    
      3500  -105630.79      1.4047385     -105629.38      350.56548      40248.214      497.97437    
      3600  -105630.56      1.2949086     -105629.26      323.15642      42483.049      497.97437    
      3700  -105630.34      1.1466527     -105629.19      286.15777      45609.57       497.97437    
      3800  -105630.72      1.6259903     -105629.1       405.78092      41754.847      497.97437    
      3900  -105630.77      1.5504395     -105629.22      386.92651      41359.305      497.97437    
      4000  -105630.49      0.95825002    -105629.53      239.14015      43038.732      497.97437    
      4100  -105630.88      1.2398356     -105629.64      309.41244      40675.724      497.97437    
      4200  -105630.87      1.1701251     -105629.7       292.01555      38666.543      497.97437    
      4300  -105631.05      1.3065112     -105629.75      326.05194      37280.577      497.97437    
      4400  -105630.68      0.88053321    -105629.8       219.74521      39873.021      497.97437    
      4500  -105630.97      1.2213329     -105629.74      304.79491      37399.427      497.97437    
      4600  -105630.76      1.1324507     -105629.62      282.61353      40205.736      497.97437    
      4700  -105630.8       1.3631122     -105629.43      340.17725      40562.198      497.97437    
      4800  -105630.53      1.3310629     -105629.2       332.17906      40964.44       497.97437    
      4900  -105630.58      1.5159623     -105629.06      378.32242      41756.991      497.97437    
      5000  -105630.33      1.2618987     -105629.07      314.91849      47213.361      497.97437    
      5100  -105630.6       1.4359734     -105629.16      358.36044      42870.11       497.97437    
      5200  -105630.94      1.3080543     -105629.63      326.43704      37875.263      497.97437    
      5300  -105630.8       0.94374557    -105629.86      235.52043      38579.301      497.97437    
      5400  -105631.1       1.2167383     -105629.88      303.64829      38079.861      497.97437    
      5500  -105630.75      0.88131741    -105629.87      219.94091      39745.828      497.97437    
      5600  -105631.12      1.3715403     -105629.75      342.28058      36804.452      497.97437    
      5700  -105630.6       0.96031658    -105629.64      239.65588      42410.022      497.97437    
      5800  -105630.83      1.3604602     -105629.47      339.51542      41246.671      497.97437    
      5900  -105630.59      1.2447645     -105629.35      310.64248      42035.967      497.97437    
      6000  -105630.85      1.5611788     -105629.29      389.60661      39701.816      497.97437    
      6100  -105630.36      0.99751589    -105629.37      248.93931      44542.9        497.97437    
      6200  -105630.89      1.4574086     -105629.43      363.70979      40995.113      497.97437    
      6300  -105630.72      1.0899685     -105629.63      272.01173      40595.92       497.97437    
      6400  -105630.97      1.1398853     -105629.83      284.46892      38987.911      497.97437    
      6500  -105630.97      1.0137595     -105629.96      252.99305      38171.499      497.97437    
      6600  -105631.01      1.0405737     -105629.97      259.68478      37623.38       497.97437    
      6700  -105631.03      1.1081286     -105629.92      276.54375      35929.335      497.97437    
      6800  -105630.81      0.95316298    -105629.85      237.87064      39931.384      497.97437    
      6900  -105631.07      1.3212148     -105629.75      329.72137      36870.33       497.97437    
      7000  -105630.79      1.0860212     -105629.71      271.02664      39515.227      497.97437    
      7100  -105630.71      1.0592473     -105629.65      264.34495      40385.543      497.97437    
      7200  -105630.77      1.2129891     -105629.55      302.71264      40577.396      497.97437    
      7300  -105631.05      1.5606815     -105629.49      389.48251      38093.478      497.97437    
      7400  -105630.48      0.92429904    -105629.56      230.66737      41561.561      497.97437    
      7500  -105630.81      1.2686884     -105629.54      316.61292      38996.224      497.97437    
      7600  -105630.88      1.3467521     -105629.53      336.09444      40451.602      497.97437    
      7700  -105630.74      1.1336627     -105629.61      282.91602      41725.071      497.97437    
      7800  -105630.85      1.1045373     -105629.75      275.64749      40030.941      497.97437    
      7900  -105631         0.94296789    -105630.05      235.32636      36660.645      497.97437    
      8000  -105631.07      0.9035441     -105630.17      225.48779      36084.164      497.97437    
      8100  -105631.19      1.0434396     -105630.15      260.40001      35493.858      497.97437    
      8200  -105631.16      1.0890241     -105630.07      271.77605      35196.984      497.97437    
      8300  -105630.81      0.88589176    -105629.92      221.08248      39799.106      497.97437    
      8400  -105630.81      1.0695249     -105629.74      266.90983      40099.58       497.97437    
      8500  -105630.93      1.3306923     -105629.59      332.08657      39513.2        497.97437    
      8600  -105630.84      1.2741033     -105629.57      317.96426      40950.018      497.97437    
      8700  -105630.69      1.1223309     -105629.57      280.08805      42740.356      497.97437    
      8800  -105630.69      1.1449478     -105629.55      285.73232      41893.665      497.97437    
      8900  -105630.86      1.3696807     -105629.49      341.81648      41226.715      497.97437    
      9000  -105630.73      1.2549006     -105629.48      313.17206      42782.819      497.97437    
      9100  -105630.72      1.2015471     -105629.51      299.85719      41673.211      497.97437    
      9200  -105630.87      1.2686928     -105629.6       316.61403      39059.899      497.97437    
      9300  -105630.72      0.97494603    -105629.74      243.3068       41925.521      497.97437    
      9400  -105631.04      1.1936722     -105629.84      297.89194      38788.646      497.97437    
      9500  -105631.02      1.0780605     -105629.94      269.03998      36801.343      497.97437    
      9600  -105630.98      0.96947911    -105630.01      241.94248      37385.427      497.97437    
      9700  -105630.88      0.88625567    -105629.99      221.1733       37147.089      497.97437    
      9800  -105631.17      1.4127802     -105629.76      352.57236      36818.115      497.97437    
      9900  -105630.69      1.148702      -105629.54      286.66921      42775.058      497.97437    
     10000  -105630.57      1.1575293     -105629.41      288.87215      44666.807      497.97437    
     10100  -105630.59      1.2754062     -105629.31      318.28941      41866.94       497.97437    
     10200  -105630.87      1.562414      -105629.3       389.91487      41066.338      497.97437    
     10300  -105630.55      1.1311396     -105629.42      282.28635      44940.334      497.97437    
     10400  -105630.71      1.2338528     -105629.48      307.91937      42464.054      497.97437    
     10500  -105630.89      1.3423496     -105629.55      334.99576      38094.076      497.97437    
     10600  -105630.76      1.1134733     -105629.64      277.87756      41717.015      497.97437    
     10700  -105630.84      1.156654      -105629.69      288.6537       39424.165      497.97437    
     10800  -105630.98      1.2705526     -105629.71      317.07815      37921.608      497.97437    
     10900  -105630.79      1.0423094     -105629.75      260.11794      39176.07       497.97437    
     11000  -105630.81      1.0817793     -105629.73      269.96803      40557.216      497.97437    
     11100  -105630.92      1.4610864     -105629.46      364.62762      39683.37       497.97437    
     11200  -105630.56      1.4307683     -105629.13      357.06147      45022.144      497.97437    
     11300  -105630.26      1.2305358     -105629.03      307.09159      47300.558      497.97437    
     11400  -105630.42      1.4402915     -105628.97      359.43805      47000.913      497.97437    
     11500  -105630.77      1.6947757     -105629.07      422.94694      42731.893      497.97437    
     11600  -105630.58      1.1627587     -105629.42      290.17719      43198.489      497.97437    
     11700  -105630.73      1.1778134     -105629.55      293.93422      40652.086      497.97437    
     11800  -105630.97      1.3394218     -105629.63      334.26509      37728.768      497.97437    
     11900  -105630.78      1.0536057     -105629.73      262.93704      40694.407      497.97437    
     12000  -105630.9       1.1435807     -105629.75      285.39114      40029.645      497.97437    
     12100  -105631.01      1.2473641     -105629.76      311.29125      37676.945      497.97437    
     12200  -105630.73      0.96317413    -105629.77      240.36901      42591.438      497.97437    
     12300  -105630.86      1.1873133     -105629.67      296.30501      41311.083      497.97437    
     12400  -105630.88      1.451882      -105629.43      362.33058      41735.297      497.97437    
     12500  -105630.55      1.2837353     -105629.26      320.36802      40288.179      497.97437    
     12600  -105630.4       1.234531      -105629.17      308.08863      44848.77       497.97437    
     12700  -105630.61      1.5216842     -105629.09      379.75037      43971.445      497.97437    
     12800  -105630.74      1.5330829     -105629.21      382.59501      42170.635      497.97437    
     12900  -105630.65      1.0816811     -105629.57      269.94351      40299.392      497.97437    
     13000  -105630.82      1.1119169     -105629.71      277.48914      39896.714      497.97437    
     13100  -105631.04      1.2895669     -105629.75      321.82335      37942.903      497.97437    
     13200  -105630.92      1.1240937     -105629.8       280.52798      40252.365      497.97437    
     13300  -105630.78      0.97295405    -105629.81      242.80968      39423.586      497.97437    
     13400  -105630.92      1.2047051     -105629.72      300.6453       38636.794      497.97437    
     13500  -105630.79      1.217975      -105629.58      303.95693      41657.56       497.97437    
     13600  -105630.77      1.3372289     -105629.43      333.71784      42329.368      497.97437    
     13700  -105630.69      1.374761      -105629.31      343.08433      42616.521      497.97437    
     13800  -105630.45      1.1846851     -105629.27      295.64911      42363.043      497.97437    
     13900  -105630.49      1.3032623     -105629.18      325.24115      44711.706      497.97437    
     14000  -105630.8       1.7920951     -105629.01      447.23391      42661.68       497.97437    
     14100  -105630.52      1.4042526     -105629.11      350.44421      44112.355      497.97437    
     14200  -105630.41      1.072482      -105629.34      267.6478       45858.665      497.97437    
     14300  -105630.73      1.2553867     -105629.48      313.29336      43382.825      497.97437    
     14400  -105630.96      1.3256831     -105629.63      330.83647      39025.76       497.97437    
     14500  -105630.9       1.1319596     -105629.77      282.49099      38059.931      497.97437    
     14600  -105631         1.1473913     -105629.86      286.34211      37639.653      497.97437    
     14700  -105630.87      0.98690618    -105629.88      246.29156      39796.018      497.97437    
     14800  -105630.79      0.96414883    -105629.82      240.61226      38938.59       497.97437    
     14900  -105631.05      1.3938611     -105629.65      347.85094      36957.332      497.97437    
     15000  -105630.9       1.3569779     -105629.54      338.64639      38726.351      497.97437    
     15100  -105630.48      0.95825955    -105629.52      239.14253      42687.732      497.97437    
     15200  -105630.73      1.2722919     -105629.46      317.51221      41727.846      497.97437    
     15300  -105630.74      1.2925104     -105629.45      322.55791      41460.283      497.97437    
     15400  -105630.87      1.3854181     -105629.48      345.7439       40573.919      497.97437    
     15500  -105630.75      1.1563134     -105629.59      288.56871      40977.298      497.97437    
     15600  -105630.75      1.0983118     -105629.65      274.09387      40514.225      497.97437    
     15700  -105630.88      1.1942132     -105629.68      298.02694      40280.264      497.97437    
     15800  -105630.91      1.1946546     -105629.72      298.13712      40035.164      497.97437    
     15900  -105630.94      1.1695526     -105629.77      291.87266      38717.101      497.97437    
     16000  -105630.85      1.0131718     -105629.83      252.8464       39842.137      497.97437    
     16100  -105630.83      0.97782042    -105629.85      244.02413      40301.213      497.97437    
     16200  -105631.08      1.3140923     -105629.77      327.94388      37151.48       497.97437    
     16300  -105630.82      1.1637207     -105629.66      290.41726      38833.704      497.97437    
     16400  -105630.76      1.2342457     -105629.53      308.01743      41021.862      497.97437    
     16500  -105630.57      1.2055027     -105629.37      300.84434      42643.59       497.97437    
     16600  -105630.7       1.4785647     -105629.22      368.98949      44955.394      497.97437    
     16700  -105630.46      1.2697566     -105629.19      316.8795       44670.147      497.97437    
     16800  -105630.72      1.4709821     -105629.25      367.09717      42184.862      497.97437    
     16900  -105630.65      1.1730933     -105629.47      292.75628      42827.366      497.97437    
     17000  -105630.9       1.1374111     -105629.76      283.85145      39604.535      497.97437    
     17100  -105630.94      1.0864452     -105629.85      271.13246      37534.264      497.97437    
     17200  -105631.1       1.2314786     -105629.87      307.32688      36559.116      497.97437    
     17300  -105630.83      0.95652208    -105629.87      238.70893      41215.413      497.97437    
     17400  -105630.84      1.0561726     -105629.79      263.57765      40176.779      497.97437    
     17500  -105630.92      1.2914753     -105629.63      322.29961      38374.55       497.97437    
     17600  -105630.69      1.181845      -105629.51      294.94035      41805.236      497.97437    
     17700  -105630.77      1.3554205     -105629.41      338.25771      42262.85       497.97437    
     17800  -105630.64      1.2464648     -105629.39      311.06681      41929.855      497.97437    
     17900  -105630.69      1.2761831     -105629.41      318.48329      42770.282      497.97437    
     18000  -105630.74      1.2540461     -105629.49      312.95879      42541.514      497.97437    
     18100  -105630.82      1.0706279     -105629.75      267.1851       40498.799      497.97437    
     18200  -105631.12      1.1238845     -105629.99      280.47577      36152.172      497.97437    
     18300  -105630.99      0.89734922    -105630.1       223.9418       37823.502      497.97437    
     18400  -105631.08      1.0211039     -105630.06      254.82592      36487.88       497.97437    
     18500  -105631.01      1.0744309     -105629.94      268.13418      37657.075      497.97437    
     18600  -105630.84      1.0477613     -105629.79      261.47852      40021.681      497.97437    
     18700  -105630.86      1.238982      -105629.63      309.19942      39283.469      497.97437    
     18800  -105630.72      1.188176      -105629.53      296.5203       41475.512      497.97437    
     18900  -105630.86      1.3726173     -105629.49      342.54934      40330.389      497.97437    
     19000  -105630.47      0.97788898    -105629.49      244.04124      44441.496      497.97437    
     19100  -105631.01      1.5578782     -105629.45      388.78292      37919.99       497.97437    
     19200  -105630.6       1.0645364     -105629.53      265.66491      42949.963      497.97437    
     19300  -105630.86      1.2388578     -105629.63      309.16841      39925.689      497.97437    
     19400  -105630.93      1.0643161     -105629.87      265.60992      39192.61       497.97437    
     19500  -105630.88      0.84802541    -105630.03      211.63258      39473.462      497.97437    
     19600  -105631.27      1.1987444     -105630.07      299.15776      33851.08       497.97437    
     19700  -105630.98      0.90842577    -105630.07      226.70605      37965.621      497.97437    
     19800  -105631.04      1.0608229     -105629.98      264.73818      37088.431      497.97437    
     19900  -105630.65      0.83349426    -105629.82      208.0062       40780.859      497.97437    
     20000  -105631.15      1.4842943     -105629.66      370.41936      36247.197      497.97437    
     20100  -105630.76      1.0965835     -105629.66      273.66255      40481.908      497.97437    
     20200  -105630.76      1.1165332     -105629.64      278.64118      42628.405      497.97437    
     20300  -105630.72      1.147015      -105629.57      286.24821      39404.795      497.97437    
     20400  -105630.84      1.3672665     -105629.48      341.214        40895.059      497.97437    
     20500  -105630.8       1.3673748     -105629.44      341.24102      41557.638      497.97437    
     20600  -105630.58      1.1064491     -105629.48      276.1246       42754.406      497.97437    
     20700  -105630.82      1.3016757     -105629.52      324.84521      37832.445      497.97437    
     20800  -105630.71      1.0716622     -105629.64      267.44322      42359.304      497.97437    
     20900  -105630.98      1.2003986     -105629.78      299.57057      39107.985      497.97437    
     21000  -105631.06      1.1135953     -105629.95      277.90801      35969.082      497.97437    
     21100  -105630.97      0.90740275    -105630.06      226.45075      37612.268      497.97437    
     21200  -105630.99      0.93589872    -105630.06      233.56218      37506.828      497.97437    
     21300  -105631.12      1.1986945     -105629.92      299.14531      36524.347      497.97437    
     21400  -105630.94      1.2085177     -105629.73      301.59678      36711.858      497.97437    
     21500  -105630.53      0.94729309    -105629.58      236.40575      43233.447      497.97437    
     21600  -105630.86      1.4036808     -105629.46      350.30153      39791.668      497.97437    
     21700  -105630.74      1.2781108     -105629.46      318.96437      40661.718      497.97437    
     21800  -105630.69      1.1822906     -105629.51      295.05155      41526.125      497.97437    
     21900  -105630.77      1.2271102     -105629.54      306.23669      41124.844      497.97437    
     22000  -105630.83      1.2393472     -105629.6       309.29055      39911.126      497.97437    
     22100  -105630.83      1.1595982     -105629.67      289.38847      39692.024      497.97437    
     22200  -105630.8       1.0397903     -105629.76      259.48929      39545.038      497.97437    
     22300  -105631         1.1906669     -105629.81      297.14194      37851.096      497.97437    
     22400  -105630.95      1.0739919     -105629.88      268.02461      37419.458      497.97437    
     22500  -105630.89      0.95616659    -105629.93      238.62021      40414.363      497.97437    
     22600  -105630.99      1.083207      -105629.9       270.32433      38158.199      497.97437    
     22700  -105630.94      1.1736566     -105629.77      292.89686      37354.252      497.97437    
     22800  -105630.86      1.2680844     -105629.59      316.46219      40020.629      497.97437    
     22900  -105630.65      1.2287253     -105629.42      306.63976      41695.516      497.97437    
     23000  -105630.59      1.2769669     -105629.31      318.67889      42174.791      497.97437    
     23100  -105630.73      1.4770573     -105629.25      368.6133       42235.875      497.97437    
     23200  -105630.56      1.2306191     -105629.33      307.11238      44704.293      497.97437    
     23300  -105630.78      1.3297833     -105629.45      331.85973      41915.137      497.97437    
     23400  -105630.75      1.0516276     -105629.7       262.4434       40406.887      497.97437    
     23500  -105630.98      1.1156815     -105629.86      278.42862      36503.301      497.97437    
     23600  -105631.08      1.1374753     -105629.94      283.86749      36776.139      497.97437    
     23700  -105630.93      0.99080786    -105629.94      247.26526      37946.256      497.97437    
     23800  -105630.91      1.040642      -105629.87      259.70184      38460.077      497.97437    
     23900  -105630.97      1.2097029     -105629.76      301.89254      37828.984      497.97437    
     24000  -105630.74      1.0963867     -105629.65      273.61343      40863.92       497.97437    
     24100  -105630.78      1.2596016     -105629.52      314.34523      40634.545      497.97437    
     24200  -105630.74      1.3294773     -105629.41      331.78335      41645.435      497.97437    
     24300  -105630.65      1.2805042     -105629.37      319.56166      43072.273      497.97437    
     24400  -105630.7       1.314814      -105629.39      328.12399      42646.313      497.97437    
     24500  -105630.69      1.1942627     -105629.5       298.0393       41539.058      497.97437    
     24600  -105630.79      1.0555174     -105629.74      263.41413      40388.205      497.97437    
     24700  -105631.1       1.1459203     -105629.96      285.975        37022.708      497.97437    
     24800  -105631.12      1.0513585     -105630.07      262.37624      36169.547      497.97437    
     24900  -105630.94      0.86934478    -105630.07      216.95303      37680.4        497.97437    
     25000  -105630.97      1.0020891     -105629.97      250.0806       36643.187      497.97437    
     25100  -105631.03      1.2252885     -105629.81      305.78206      36748.202      497.97437    
     25200  -105630.97      1.2572094     -105629.71      313.74823      38195.089      497.97437    
     25300  -105630.65      0.98169169    -105629.67      244.99024      42643.866      497.97437    
     25400  -105630.67      1.0854407     -105629.58      270.88177      41293.451      497.97437    
     25500  -105630.91      1.4459111     -105629.47      360.84048      40672.172      497.97437    
     25600  -105630.71      1.2464933     -105629.47      311.07394      42975.484      497.97437    
     25700  -105630.76      1.2549255     -105629.5       313.17827      41767.476      497.97437    
     25800  -105630.62      1.0747722     -105629.54      268.21935      42853.968      497.97437    
     25900  -105630.88      1.3326966     -105629.55      332.58677      42267.06       497.97437    
     26000  -105630.76      1.1285252     -105629.63      281.63391      40460.373      497.97437    
     26100  -105631.02      1.1696524     -105629.85      291.89757      38169.494      497.97437    
     26200  -105630.94      0.88777967    -105630.05      221.55363      36953.037      497.97437    
     26300  -105631.18      1.0780022     -105630.1       269.02543      35929.674      497.97437    
     26400  -105630.98      0.90266323    -105630.08      225.26796      36029.718      497.97437    
     26500  -105631.1       1.1623533     -105629.94      290.07602      35891.506      497.97437    
     26600  -105630.79      1.0260266     -105629.76      256.05443      40901.299      497.97437    
     26700  -105630.85      1.2513656     -105629.6       312.28985      39910.494      497.97437    
     26800  -105630.63      1.1196946     -105629.51      279.43015      41960.654      497.97437    
     26900  -105630.72      1.2639759     -105629.45      315.43689      43924.535      497.97437    
     27000  -105630.85      1.4247249     -105629.43      355.55327      40446.912      497.97437    
     27100  -105630.64      1.1378112     -105629.5       283.9513       43046.588      497.97437    
     27200  -105630.71      1.1419826     -105629.56      284.99233      40402.397      497.97437    
     27300  -105630.81      1.1870725     -105629.63      296.24491      40944.767      497.97437    
     27400  -105631.09      1.303919      -105629.78      325.40504      38257.901      497.97437    
     27500  -105630.86      0.82134136    -105630.04      204.97333      38046.084      497.97437    
     27600  -105631.11      1.0015167     -105630.11      249.93775      36081.801      497.97437    
     27700  -105631.03      0.95111392    -105630.08      237.35928      38263.792      497.97437    
     27800  -105631.14      1.1794957     -105629.96      294.35405      37007.659      497.97437    
     27900  -105630.87      1.0571198     -105629.81      263.81403      40280.72       497.97437    
     28000  -105630.69      1.0036256     -105629.69      250.46405      42451.026      497.97437    
     28100  -105630.74      1.1782203     -105629.57      294.03578      42114.367      497.97437    
     28200  -105630.94      1.4277336     -105629.51      356.30412      38303.675      497.97437    
     28300  -105630.82      1.2593654     -105629.56      314.28628      39649.447      497.97437    
     28400  -105630.65      1.0251204     -105629.62      255.82828      42360.412      497.97437    
     28500  -105630.76      1.1457166     -105629.61      285.92417      42123.423      497.97437    
     28600  -105630.99      1.4244646     -105629.57      355.48831      37564.776      497.97437    
     28700  -105630.7       1.0971942     -105629.6       273.81496      39792.729      497.97437    
     28800  -105630.9       1.2480892     -105629.66      311.47221      39042.508      497.97437    
     28900  -105630.71      0.96276077    -105629.75      240.26585      41512.172      497.97437    
     29000  -105630.92      1.1228033     -105629.79      280.20594      38115.017      497.97437    
     29100  -105631         1.1967021     -105629.81      298.64808      36280.439      497.97437    
     29200  -105631.01      1.1836322     -105629.83      295.38637      38305.313      497.97437    
     29300  -105630.78      0.95380633    -105629.83      238.03119      39581.449      497.97437    
     29400  -105630.75      1.0368374     -105629.72      258.75237      40434.559      497.97437    
     29500  -105630.95      1.4651614     -105629.49      365.64458      38356.557      497.97437    
     29600  -105630.73      1.3614413     -105629.37      339.76027      41638.969      497.97437    
     29700  -105630.57      1.1899912     -105629.38      296.97331      42069.285      497.97437    
     29800  -105630.4       1.0281473     -105629.37      256.58366      44708.776      497.97437    
     29900  -105630.96      1.6600685     -105629.3       414.28544      38760.396      497.97437    
     30000  -105630.74      1.289829      -105629.45      321.88875      41421.794      497.97437    
     30100  -105630.82      1.078312      -105629.74      269.10274      39969.433      497.97437    
     30200  -105630.8       0.93444662    -105629.87      233.19979      39698.549      497.97437    
     30300  -105631.08      1.2114179     -105629.86      302.32054      36546.102      497.97437    
     30400  -105631.05      1.1998053     -105629.85      299.42251      37776.704      497.97437    
     30500  -105630.82      0.99384783    -105629.83      248.02392      39741.465      497.97437    
     30600  -105630.84      1.1142191     -105629.72      278.06367      39424.458      497.97437    
     30700  -105630.72      1.1974158     -105629.52      298.82619      42192.47       497.97437    
     30800  -105630.81      1.480594      -105629.33      369.49591      40216.003      497.97437    
     30900  -105630.61      1.2856052     -105629.33      320.83467      42307.009      497.97437    
     31000  -105630.5       1.1538902     -105629.34      287.96397      41176.878      497.97437    
     31100  -105630.8       1.4377063     -105629.36      358.7929       40220.02       497.97437    
     31200  -105630.75      1.2840446     -105629.46      320.4452       40482.28       497.97437    
     31300  -105630.8       1.2154828     -105629.59      303.33498      40536.092      497.97437    
     31400  -105630.78      1.1027412     -105629.68      275.19927      41352.068      497.97437    
     31500  -105630.84      1.1231279     -105629.72      280.28695      40689.838      497.97437    
     31600  -105630.93      1.2141324     -105629.72      302.99798      39260.951      497.97437    
     31700  -105630.81      1.0980777     -105629.71      274.03545      41188.447      497.97437    
     31800  -105630.89      1.2671841     -105629.62      316.23752      38624.828      497.97437    
     31900  -105630.58      1.2200275     -105629.36      304.46915      41908.788      497.97437    
     32000  -105630.56      1.4569809     -105629.11      363.60307      42996.212      497.97437    
     32100  -105630.48      1.452474      -105629.02      362.47832      45967.03       497.97437    
     32200  -105630.64      1.5151129     -105629.13      378.11044      41986.669      497.97437    
     32300  -105630.41      1.0893108     -105629.33      271.84759      45129.017      497.97437    
     32400  -105630.88      1.4191585     -105629.46      354.16413      39207.635      497.97437    
     32500  -105630.92      1.2761761     -105629.65      318.48155      39813.253      497.97437    
     32600  -105630.79      1.0307177     -105629.76      257.22513      40971.582      497.97437    
     32700  -105630.85      1.0825181     -105629.77      270.15241      39240.652      497.97437    
     32800  -105630.89      1.1668745     -105629.73      291.20432      39457.805      497.97437    
     32900  -105630.97      1.2918349     -105629.68      322.38935      38441.514      497.97437    
     33000  -105630.72      1.0809735     -105629.64      269.76694      39159.308      497.97437    
     33100  -105630.83      1.2908179     -105629.54      322.13554      39804.771      497.97437    
     33200  -105630.65      1.3322231     -105629.32      332.4686       45291.158      497.97437    
     33300  -105630.41      1.3921852     -105629.02      347.43269      45463.198      497.97437    
     33400  -105630.5       1.6222093     -105628.87      404.83733      44809.99       497.97437    
     33500  -105630.31      1.3451771     -105628.96      335.70139      46803.755      497.97437    
     33600  -105630.51      1.4165823     -105629.09      353.5212       46226.245      497.97437    
     33700  -105630.82      1.5108567     -105629.31      377.04825      40710.049      497.97437    
     33800  -105630.68      1.2116694     -105629.47      302.38331      42398.678      497.97437    
     33900  -105630.73      1.1827165     -105629.54      295.15784      42234.582      497.97437    
     34000  -105630.82      1.2320876     -105629.59      307.47886      40817.644      497.97437    
     34100  -105630.87      1.2226768     -105629.65      305.1303       39013.826      497.97437    
     34200  -105630.74      1.0351621     -105629.71      258.33427      41045.14       497.97437    
     34300  -105630.99      1.2644948     -105629.72      315.56637      37630.579      497.97437    
     34400  -105630.77      1.0206423     -105629.75      254.71073      39445.303      497.97437    
     34500  -105630.98      1.2343842     -105629.74      308.05199      36996.787      497.97437    
     34600  -105630.73      1.0316053     -105629.69      257.44664      42377.418      497.97437    
     34700  -105630.94      1.3977562     -105629.55      348.82298      38400.492      497.97437    
     34800  -105630.74      1.3243925     -105629.41      330.5144       41755.198      497.97437    
     34900  -105630.38      1.0239243     -105629.36      255.52979      44770.036      497.97437    
     35000  -105630.7       1.4987919     -105629.2       374.03737      41987.506      497.97437    
     35100  -105630.65      1.5041731     -105629.15      375.3803       42414.328      497.97437    
     35200  -105630.72      1.4144168     -105629.31      352.98079      42832.569      497.97437    
     35300  -105630.51      0.93292989    -105629.58      232.82128      45002.433      497.97437    
     35400  -105630.92      1.2532358     -105629.67      312.75659      39696.259      497.97437    
     35500  -105631.06      1.3167273     -105629.75      328.60149      36973.635      497.97437    
     35600  -105630.89      1.0755112     -105629.82      268.40377      40248.118      497.97437    
     35700  -105630.7       0.89193153    -105629.81      222.58976      41632.687      497.97437    
     35800  -105631.05      1.3467057     -105629.7       336.08287      38147.497      497.97437    
     35900  -105630.8       1.1762286     -105629.63      293.53872      41595.985      497.97437    
     36000  -105630.72      1.1528925     -105629.57      287.71498      42692.927      497.97437    
     36100  -105630.82      1.341557      -105629.48      334.79794      40126.466      497.97437    
     36200  -105630.72      1.3193852     -105629.4       329.26478      41064.654      497.97437    
     36300  -105630.61      1.3249779     -105629.29      330.66048      45352.737      497.97437    
     36400  -105630.39      1.277258      -105629.11      318.75153      44932.817      497.97437    
     36500  -105630.85      1.8837117     -105628.96      470.09767      40951.376      497.97437    
     36600  -105630.15      1.0333274     -105629.11      257.87642      45423.523      497.97437    
     36700  -105630.65      1.4226226     -105629.23      355.02863      42150.145      497.97437    
     36800  -105630.79      1.3379017     -105629.45      333.88575      40229.975      497.97437    
     36900  -105630.99      1.3118775     -105629.68      327.39117      39057.43       497.97437    
     37000  -105630.68      0.88707382    -105629.8       221.37748      42822.264      497.97437    
     37100  -105630.9       1.1312463     -105629.77      282.31297      38608.984      497.97437    
     37200  -105630.99      1.283415      -105629.71      320.28809      37974.594      497.97437    
     37300  -105630.81      1.1364649     -105629.68      283.61533      41572.902      497.97437    
     37400  -105630.84      1.2291506     -105629.61      306.74591      40014.289      497.97437    
     37500  -105630.67      1.1762242     -105629.49      293.53762      42439.351      497.97437    
     37600  -105630.72      1.4591769     -105629.26      364.1511       43026.764      497.97437    
     37700  -105630.48      1.4232777     -105629.05      355.19212      47191.045      497.97437    
     37800  -105630.52      1.5256113     -105628.99      380.73042      44992.942      497.97437    
     37900  -105630.44      1.3266389     -105629.12      331.07502      46593.03       497.97437    
     38000  -105630.6       1.2216988     -105629.38      304.88624      42922.022      497.97437    
     38100  -105630.88      1.2515897     -105629.63      312.34577      40926.883      497.97437    
     38200  -105631.03      1.3009882     -105629.72      324.67363      37212.897      497.97437    
     38300  -105630.92      1.117342      -105629.8       278.84303      39633.862      497.97437    
     38400  -105630.63      0.81996096    -105629.81      204.62884      42538.471      497.97437    
     38500  -105631.03      1.3496632     -105629.68      336.82093      37956.827      497.97437    
     38600  -105630.82      1.2515999     -105629.57      312.34834      39810.667      497.97437    
     38700  -105630.84      1.3342613     -105629.5       332.97725      41419.02       497.97437    
     38800  -105630.51      1.0255707     -105629.48      255.94065      44652.097      497.97437    
     38900  -105630.75      1.3929679     -105629.36      347.62803      42333.594      497.97437    
     39000  -105630.57      1.3629343     -105629.21      340.13286      43812.998      497.97437    
     39100  -105630.8       1.7357725     -105629.06      433.17807      42649.471      497.97437    
     39200  -105630.38      1.2045494     -105629.18      300.60645      46485.8        497.97437    
     39300  -105630.53      1.1684793     -105629.36      291.6048       45960.774      497.97437    
     39400  -105630.77      1.2173558     -105629.55      303.80241      43094.41       497.97437    
     39500  -105631.07      1.349946      -105629.72      336.89151      37973.012      497.97437    
     39600  -105630.94      1.0777079     -105629.86      268.95197      38428.26       497.97437    
     39700  -105630.78      0.90039281    -105629.88      224.70135      41550.233      497.97437    
     39800  -105631.02      1.212153      -105629.81      302.50399      38961.541      497.97437    
     39900  -105630.93      1.1977476     -105629.74      298.90898      38839.986      497.97437    
     40000  -105630.82      1.1411334     -105629.68      284.7804       42115.008      497.97437    
     40100  -105630.62      1.0140264     -105629.61      253.05966      43853.366      497.97437    
     40200  -105630.96      1.5050261     -105629.45      375.59319      40189.608      497.97437    
     40300  -105630.56      1.1561102     -105629.41      288.51798      42253.713      497.97437    
     40400  -105630.8       1.4189022     -105629.38      354.10017      42273.887      497.97437    
     40500  -105630.58      1.1133092     -105629.46      277.83661      44409.171      497.97437    
     40600  -105630.86      1.1299988     -105629.73      282.00165      39474.643      497.97437    
     40700  -105631.06      1.0876383     -105629.97      271.4302       36384.739      497.97437    
     40800  -105631.05      0.98347366    -105630.07      245.43495      36282.441      497.97437    
     40900  -105631.11      1.0443524     -105630.07      260.6278       36255.195      497.97437    
     41000  -105630.98      0.996208      -105629.98      248.61292      38308.224      497.97437    
     41100  -105630.87      1.0568616     -105629.82      263.74957      40886.289      497.97437    
     41200  -105630.79      1.1662028     -105629.62      291.03671      42184.974      497.97437    
     41300  -105630.76      1.265216      -105629.5       315.74635      42760.971      497.97437    
     41400  -105630.77      1.3283571     -105629.44      331.5038       42348.277      497.97437    
     41500  -105630.62      1.1766975     -105629.45      293.65575      41889.986      497.97437    
     41600  -105630.77      1.3136984     -105629.46      327.84559      42662.278      497.97437    
     41700  -105630.86      1.3130596     -105629.55      327.68616      41168.331      497.97437    
     41800  -105630.69      0.95925595    -105629.73      239.39119      42375.682      497.97437    
     41900  -105630.96      1.1006087     -105629.86      274.66707      39045.253      497.97437    
     42000  -105631.11      1.1154666     -105630         278.37501      35962.503      497.97437    
     42100  -105631.06      0.96632222    -105630.09      241.15465      36537.139      497.97437    
     42200  -105631.14      0.99936155    -105630.14      249.39992      35997.843      497.97437    
     42300  -105630.92      0.81874649    -105630.1       204.32576      38159.743      497.97437    
     42400  -105631.12      1.3133945     -105629.81      327.76974      37325.426      497.97437    
     42500  -105630.62      1.0134273     -105629.6       252.91015      43371.704      497.97437    
     42600  -105630.83      1.3899418     -105629.44      346.87283      41197.345      497.97437    
     42700  -105630.51      1.1453248     -105629.37      285.8264       45362.901      497.97437    
     42800  -105630.88      1.5595381     -105629.32      389.19715      40702.597      497.97437    
     42900  -105630.45      1.057684      -105629.39      263.95482      43939.536      497.97437    
     43000  -105630.9       1.4344586     -105629.47      357.98241      39514.687      497.97437    
     43100  -105630.83      1.1531917     -105629.68      287.78964      41358.748      497.97437    
     43200  -105630.88      1.0466172     -105629.83      261.19301      39948.774      497.97437    
     43300  -105631.05      1.131495      -105629.91      282.37504      37983.456      497.97437    
     43400  -105630.88      0.95949485    -105629.92      239.45081      39314.994      497.97437    
     43500  -105631.08      1.2245622     -105629.85      305.60081      38529.346      497.97437    
     43600  -105630.64      0.84935121    -105629.79      211.96345      41565.137      497.97437    
     43700  -105631.2       1.5348115     -105629.66      383.0264       35636.307      497.97437    
     43800  -105630.57      0.91047205    -105629.66      227.21672      41633.39       497.97437    
     43900  -105630.9       1.2978054     -105629.61      323.87933      41030.174      497.97437    
     44000  -105630.71      1.145347      -105629.57      285.83193      40776.538      497.97437    
     44100  -105630.91      1.3705163     -105629.54      342.02502      40611.812      497.97437    
     44200  -105630.62      1.0588432     -105629.57      264.24411      43543.987      497.97437    
     44300  -105630.8       1.2518912     -105629.55      312.42102      41875.362      497.97437    
     44400  -105630.85      1.3229105     -105629.53      330.14454      41055.499      497.97437    
     44500  -105630.68      1.1194647     -105629.56      279.37277      42307.069      497.97437    
     44600  -105630.88      1.2744347     -105629.61      318.04698      40570.494      497.97437    
     44700  -105630.83      1.1457529     -105629.69      285.93324      39721.441      497.97437    
     44800  -105630.95      1.1513993     -105629.8       287.34233      40553.795      497.97437    
     44900  -105630.74      0.87007349    -105629.87      217.13489      41117.569      497.97437    
     45000  -105631.25      1.421364      -105629.83      354.71452      34866.014      497.97437    
     45100  -105630.81      0.96481251    -105629.85      240.77788      40559.283      497.97437    
     45200  -105630.82      1.0371383     -105629.78      258.82746      41355.604      497.97437    
     45300  -105630.91      1.3643042     -105629.55      340.47472      40527.781      497.97437    
     45400  -105630.63      1.2614999     -105629.37      314.81897      43654.72       497.97437    
     45500  -105630.55      1.2760122     -105629.27      318.44065      46538.526      497.97437    
     45600  -105630.56      1.3294198     -105629.23      331.769        45238.551      497.97437    
     45700  -105630.73      1.4619755     -105629.27      364.8495       41795.501      497.97437    
     45800  -105630.64      1.1672489     -105629.47      291.29777      41640.353      497.97437    
     45900  -105630.78      1.1202214     -105629.66      279.56162      42203.809      497.97437    
     46000  -105631.07      1.272614      -105629.79      317.59259      38476.876      497.97437    
     46100  -105630.9       1.0396049     -105629.86      259.44301      39025.183      497.97437    
     46200  -105630.81      0.97809346    -105629.83      244.09227      40075.925      497.97437    
     46300  -105631.09      1.3438736     -105629.74      335.37609      37041.434      497.97437    
     46400  -105630.73      1.0277823     -105629.7       256.49257      42608.36       497.97437    
     46500  -105630.85      1.2408227     -105629.61      309.65878      40668.9        497.97437    
     46600  -105630.71      1.2265285     -105629.48      306.09154      41272.899      497.97437    
     46700  -105630.76      1.388737      -105629.37      346.57216      42834.796      497.97437    
     46800  -105630.54      1.2245199     -105629.32      305.59025      45977.578      497.97437    
     46900  -105630.65      1.3769281     -105629.27      343.62514      43981.036      497.97437    
     47000  -105630.6       1.3118179     -105629.29      327.37628      42988.86       497.97437    
     47100  -105630.71      1.2931808     -105629.41      322.72523      42978.752      497.97437    
     47200  -105630.81      1.1796088     -105629.63      294.38228      40817.585      497.97437    
     47300  -105630.97      1.1702042     -105629.8       292.03527      38411.776      497.97437    
     47400  -105630.95      1.0413487     -105629.91      259.87821      39988.16       497.97437    
     47500  -105630.97      1.0363209     -105629.93      258.62347      38547.958      497.97437    
     47600  -105631.11      1.2247203     -105629.88      305.64027      36937.06       497.97437    
     47700  -105630.68      0.87953233    -105629.8       219.49543      40752.262      497.97437    
     47800  -105631         1.4390803     -105629.56      359.13579      39801.539      497.97437    
     47900  -105630.62      1.2373664     -105629.38      308.79623      41768.42       497.97437    
     48000  -105630.73      1.3960989     -105629.33      348.4094       43563.21       497.97437    
     48100  -105630.43      1.0746807     -105629.36      268.19651      46008.454      497.97437    
     48200  -105630.74      1.387288      -105629.35      346.21055      43175.879      497.97437    
     48300  -105630.81      1.3860957     -105629.42      345.91301      41647.76       497.97437    
     48400  -105630.72      1.1490238     -105629.57      286.74952      40409.599      497.97437    
     48500  -105630.88      1.2134029     -105629.67      302.81592      39836.045      497.97437    
     48600  -105630.91      1.1653148     -105629.74      290.81509      39221.319      497.97437    
     48700  -105630.78      1.0115787     -105629.77      252.44882      41218.671      497.97437    
     48800  -105630.91      1.1710191     -105629.73      292.23866      40062.96       497.97437    
     48900  -105631.02      1.307586      -105629.71      326.32018      38741.088      497.97437    
     49000  -105630.74      1.0128787     -105629.73      252.77325      42410.862      497.97437    
     49100  -105630.79      1.1130677     -105629.67      277.77634      40537.822      497.97437    
     49200  -105630.82      1.2561533     -105629.56      313.48467      39911.779      497.97437    
     49300  -105630.88      1.4092808     -105629.47      351.69905      40316.538      497.97437    
     49400  -105630.67      1.2091949     -105629.46      301.76577      41818.159      497.97437    
     49500  -105630.62      1.1425451     -105629.48      285.13271      42291.245      497.97437    
     49600  -105630.8       1.3083134     -105629.49      326.5017       42989.246      497.97437    
     49700  -105630.75      1.1999452     -105629.56      299.45743      43103.184      497.97437    
     49800  -105630.84      1.1743967     -105629.66      293.08155      40813.688      497.97437    
     49900  -105630.93      1.1529278     -105629.78      287.72379      38357.185      497.97437    
     50000  -105630.84      0.97571381    -105629.86      243.4984       39102.126      497.97437    
     50100  -105630.98      1.1101084     -105629.87      277.03782      37316.266      497.97437    
     50200  -105630.98      1.1557516     -105629.83      288.4285       37289.942      497.97437    
     50300  -105630.89      1.1613649     -105629.73      289.82936      40531.98       497.97437    
     50400  -105630.71      1.1797134     -105629.53      294.4084       43550.74       497.97437    
     50500  -105630.61      1.29192       -105629.32      322.41058      44248          497.97437    
     50600  -105630.6       1.4121945     -105629.19      352.4262       43040.409      497.97437    
     50700  -105630.52      1.3173301     -105629.2       328.75191      46259.508      497.97437    
     50800  -105630.72      1.447311      -105629.27      361.18985      43614.01       497.97437    
     50900  -105630.67      1.239838      -105629.43      309.41303      42025.003      497.97437    
     51000  -105630.67      1.1414666     -105629.53      284.86355      43361.137      497.97437    
     51100  -105630.88      1.3094639     -105629.58      326.78882      41203.736      497.97437    
     51200  -105630.84      1.2162724     -105629.62      303.53203      41035.022      497.97437    
     51300  -105630.85      1.1832646     -105629.67      295.29463      38782.416      497.97437    
     51400  -105630.72      1.0310193     -105629.69      257.3004       41530.126      497.97437    
     51500  -105630.96      1.3184397     -105629.64      329.02881      39045.917      497.97437    
     51600  -105630.79      1.1750273     -105629.61      293.23894      38922.93       497.97437    
     51700  -105630.8       1.2081796     -105629.59      301.51239      39361.054      497.97437    
     51800  -105630.67      1.188194      -105629.48      296.5248       42637.816      497.97437    
     51900  -105630.77      1.4812909     -105629.29      369.66984      42313.802      497.97437    
     52000  -105630.53      1.3461846     -105629.18      335.95282      45370.804      497.97437    
     52100  -105630.35      1.1887975     -105629.16      296.67542      44511.502      497.97437    
     52200  -105630.62      1.4738785     -105629.14      367.82         43647.259      497.97437    
     52300  -105630.78      1.4713544     -105629.31      367.19009      41873.866      497.97437    
     52400  -105630.6       1.0377386     -105629.57      258.97726      41149.81       497.97437    
     52500  -105630.91      1.2295976     -105629.68      306.85745      38793.62       497.97437    
     52600  -105630.98      1.2234409     -105629.76      305.321        36996.573      497.97437    
     52700  -105630.8       0.99498078    -105629.81      248.30665      40444.385      497.97437    
     52800  -105630.86      1.0890007     -105629.78      271.77019      39452.811      497.97437    
     52900  -105630.97      1.2969516     -105629.68      323.66626      38261.321      497.97437    
     53000  -105630.83      1.2508985     -105629.57      312.1733       40634.648      497.97437    
     53100  -105630.51      1.0899201     -105629.42      271.99965      42588.148      497.97437    
     53200  -105630.67      1.5894019     -105629.08      396.64993      41296.931      497.97437    
     53300  -105630.43      1.4843048     -105628.94      370.42199      42773.908      497.97437    
     53400  -105630.51      1.475218      -105629.03      368.1543       45169.786      497.97437    
     53500  -105630.35      1.1828176     -105629.17      295.18307      44250.972      497.97437    
     53600  -105630.78      1.4861474     -105629.29      370.88183      41477.56       497.97437    
     53700  -105630.69      1.2258165     -105629.47      305.91384      42622.967      497.97437    
     53800  -105630.87      1.2861721     -105629.58      320.97615      40502.902      497.97437    
     53900  -105630.72      1.0582454     -105629.66      264.09492      40320.201      497.97437    
     54000  -105630.97      1.2899991     -105629.68      321.93121      39156.394      497.97437    
     54100  -105630.76      1.0615031     -105629.7       264.90792      40871.285      497.97437    
     54200  -105630.83      1.1550659     -105629.67      288.25738      40657.408      497.97437    
     54300  -105630.9       1.3013103     -105629.6       324.75402      39939.634      497.97437    
     54400  -105630.69      1.210633      -105629.48      302.12465      41105.638      497.97437    
     54500  -105630.69      1.4703188     -105629.22      366.93166      42988.401      497.97437    
     54600  -105630.26      1.2262274     -105629.04      306.01638      46873.156      497.97437    
     54700  -105630.58      1.6587447     -105628.92      413.95508      46902          497.97437    
     54800  -105630.42      1.3888647     -105629.04      346.60404      44181.42       497.97437    
     54900  -105630.69      1.413095      -105629.28      352.65093      42772.144      497.97437    
     55000  -105630.56      1.0876827     -105629.47      271.44127      44715.467      497.97437    
     55100  -105630.88      1.3532985     -105629.53      337.72815      40556.419      497.97437    
     55200  -105630.93      1.305896      -105629.63      325.89841      38762.457      497.97437    
     55300  -105630.69      0.97945392    -105629.71      244.43178      40919.872      497.97437    
     55400  -105630.88      1.1662195     -105629.71      291.04086      40306.669      497.97437    
     55500  -105630.93      1.2372999     -105629.69      308.77964      39069.074      497.97437    
     55600  -105630.93      1.2571392     -105629.67      313.73072      40253.354      497.97437    
     55700  -105630.58      0.91360857    -105629.66      227.99947      41778.689      497.97437    
     55800  -105630.89      1.4083369     -105629.49      351.4635       40218.848      497.97437    
     55900  -105630.75      1.4614027     -105629.28      364.70656      42681.795      497.97437    
     56000  -105630.48      1.2515444     -105629.23      312.33447      46265.867      497.97437    
     56100  -105630.4       1.1930133     -105629.21      297.72751      45216.256      497.97437    
     56200  -105630.89      1.6988025     -105629.19      423.95186      40862.429      497.97437    
     56300  -105630.53      1.0752584     -105629.46      268.34068      45598.874      497.97437    
     56400  -105630.81      1.1673443     -105629.64      291.32156      42445.367      497.97437    
     56500  -105630.89      1.1389546     -105629.75      284.23664      39282.116      497.97437    
     56600  -105631.1       1.2895837     -105629.81      321.82755      38877.322      497.97437    
     56700  -105630.74      0.88183265    -105629.85      220.06949      41983.553      497.97437    
     56800  -105630.85      1.0596605     -105629.79      264.44808      39620.837      497.97437    
     56900  -105631.08      1.4432586     -105629.64      360.17853      37028.442      497.97437    
     57000  -105630.58      1.0004855     -105629.58      249.6804       45566.414      497.97437    
     57100  -105630.84      1.3627527     -105629.47      340.08754      41091.698      497.97437    
     57200  -105630.55      1.1605127     -105629.39      289.61667      41952.436      497.97437    
     57300  -105630.7       1.5198447     -105629.18      379.2913       43985.337      497.97437    
     57400  -105630.38      1.5906444     -105628.79      396.96001      43873.072      497.97437    
     57500  -105630.42      1.8051144     -105628.61      450.48299      44395.162      497.97437    
     57600  -105630.1       1.3223296     -105628.78      329.99958      48720.49       497.97437    
     57700  -105630.43      1.4408985     -105628.99      359.58954      49132.825      497.97437    
     57800  -105630.61      1.4062665     -105629.2       350.94682      44185.754      497.97437    
     57900  -105630.79      1.4025379     -105629.38      350.01631      39760.523      497.97437    
     58000  -105630.75      1.1968348     -105629.55      298.68119      40785.598      497.97437    
     58100  -105630.82      1.1808814     -105629.64      294.69988      41247.175      497.97437    
     58200  -105630.93      1.2119044     -105629.72      302.44195      38532.309      497.97437    
     58300  -105630.75      0.97654286    -105629.78      243.7053       40912.492      497.97437    
     58400  -105631.02      1.2627153     -105629.76      315.12229      38096.408      497.97437    
     58500  -105630.95      1.2183473     -105629.73      304.04984      40932.739      497.97437    
     58600  -105630.7       1.0038962     -105629.7       250.53159      42240.264      497.97437    
     58700  -105630.72      1.2048513     -105629.52      300.68178      41517.974      497.97437    
     58800  -105630.77      1.4955524     -105629.28      373.22894      42284.744      497.97437    
     58900  -105630.65      1.4463246     -105629.21      360.94369      42957.361      497.97437    
     59000  -105630.49      1.2133268     -105629.28      302.79691      43592.941      497.97437    
     59100  -105630.63      1.2662795     -105629.36      316.01175      42691.607      497.97437    
     59200  -105630.74      1.221679      -105629.52      304.8813       42613.559      497.97437    
     59300  -105630.89      1.1932652     -105629.7       297.79035      40417.042      497.97437    
     59400  -105631.04      1.1515417     -105629.89      287.37788      37657.749      497.97437    
     59500  -105630.92      0.95098215    -105629.97      237.32639      39545.343      497.97437    
     59600  -105630.94      0.99178542    -105629.94      247.50922      38307.444      497.97437    
     59700  -105631.08      1.2030564     -105629.87      300.23385      37305.96       497.97437    
     59800  -105630.81      1.0018797     -105629.81      250.02833      39789.351      497.97437    
     59900  -105630.95      1.2447108     -105629.7       310.62908      40334.813      497.97437    
     60000  -105630.7       1.1155923     -105629.59      278.40636      42233.607      497.97437    
     60100  -105630.81      1.3424493     -105629.46      335.02063      42060.534      497.97437    
     60200  -105630.6       1.2177471     -105629.38      303.90004      42937.584      497.97437    
     60300  -105630.77      1.4373776     -105629.33      358.71087      41623.996      497.97437    
     60400  -105630.66      1.2685078     -105629.4       316.56786      42873.836      497.97437    
     60500  -105630.67      1.0621241     -105629.61      265.0629       43100.176      497.97437    
     60600  -105631         1.1357604     -105629.87      283.43952      38022.438      497.97437    
     60700  -105631.09      1.0883648     -105630         271.6115       36637.137      497.97437    
     60800  -105631.04      1.0070998     -105630.04      251.33107      37700.672      497.97437    
     60900  -105630.91      0.92861497    -105629.99      231.74445      38903.439      497.97437    
     61000  -105631.03      1.1931932     -105629.83      297.7724       36956.052      497.97437    
     61100  -105630.8       1.1144218     -105629.69      278.11427      40068.329      497.97437    
     61200  -105630.71      1.1202359     -105629.59      279.56523      41029.14       497.97437    
     61300  -105630.8       1.3030039     -105629.5       325.17667      41290.556      497.97437    
     61400  -105630.8       1.3190978     -105629.48      329.19306      39994.673      497.97437    
     61500  -105630.76      1.2300015     -105629.53      306.95824      40966.034      497.97437    
     61600  -105630.68      1.1212542     -105629.56      279.81935      41905.489      497.97437    
     61700  -105630.84      1.2557504     -105629.58      313.38412      41122.106      497.97437    
     61800  -105630.71      1.0867079     -105629.63      271.198        43159.522      497.97437    
     61900  -105630.91      1.2428241     -105629.66      310.15826      39920.955      497.97437    
     62000  -105630.96      1.1765807     -105629.78      293.6266       38810.053      497.97437    
     62100  -105630.85      0.93321193    -105629.92      232.89167      39758.976      497.97437    
     62200  -105631.1       1.1371084     -105629.97      283.77592      37761.079      497.97437    
     62300  -105630.93      0.95995651    -105629.97      239.56602      39167.501      497.97437    
     62400  -105631         1.1099378     -105629.89      276.99524      39121.15       497.97437    
     62500  -105630.85      1.1500466     -105629.7       287.00476      40775.134      497.97437    
     62600  -105630.75      1.2285967     -105629.52      306.60766      41771.612      497.97437    
     62700  -105630.6       1.2017539     -105629.4       299.90879      42797.75       497.97437    
     62800  -105630.62      1.2900415     -105629.33      321.94179      44293.654      497.97437    
     62900  -105630.79      1.4642963     -105629.33      365.42868      41229.889      497.97437    
     63000  -105630.7       1.2534722     -105629.45      312.81557      41917.907      497.97437    
     63100  -105630.64      1.1010732     -105629.54      274.78301      43610.225      497.97437    
     63200  -105630.86      1.2645902     -105629.59      315.59018      41286.133      497.97437    
     63300  -105630.87      1.2309969     -105629.64      307.20667      39544.309      497.97437    
     63400  -105630.79      1.1102691     -105629.68      277.07792      40978.431      497.97437    
     63500  -105630.9       1.228819      -105629.67      306.66315      38029.976      497.97437    
     63600  -105630.79      1.111798      -105629.68      277.45947      40629.941      497.97437    
     63700  -105630.83      1.1837338     -105629.65      295.41171      38823.473      497.97437    
     63800  -105630.9       1.2882521     -105629.61      321.49522      38480.794      497.97437    
     63900  -105630.82      1.1982428     -105629.63      299.03257      40940.006      497.97437    
     64000  -105630.72      1.0961988     -105629.63      273.56654      41821.791      497.97437    
     64100  -105630.7       1.1346831     -105629.56      283.17065      41822.804      497.97437    
     64200  -105630.9       1.514         -105629.39      377.83271      40828.573      497.97437    
     64300  -105630.65      1.4433105     -105629.21      360.19149      45426.485      497.97437    
     64400  -105630.29      1.1088159     -105629.18      276.71527      47610.544      497.97437    
     64500  -105630.58      1.4689248     -105629.11      366.58376      43400.803      497.97437    
     64600  -105630.62      1.4681314     -105629.15      366.38578      43419.05       497.97437    
     64700  -105630.85      1.4059797     -105629.45      350.87523      41980.854      497.97437    
     64800  -105630.82      1.0979568     -105629.72      274.00526      41253.161      497.97437    
     64900  -105630.75      0.96116105    -105629.79      239.86663      41765.193      497.97437    
     65000  -105630.97      1.2147131     -105629.76      303.14288      39426.872      497.97437    
     65100  -105630.93      1.2161292     -105629.71      303.4963       39422.236      497.97437    
     65200  -105630.95      1.2673717     -105629.68      316.28434      37971.973      497.97437    
     65300  -105630.68      1.0254036     -105629.65      255.89894      41680.322      497.97437    
     65400  -105630.8       1.2677257     -105629.53      316.37266      41551.913      497.97437    
     65500  -105630.69      1.3617502     -105629.33      339.83737      42158.802      497.97437    
     65600  -105630.61      1.4351578     -105629.18      358.1569       43125.979      497.97437    
     65700  -105630.5       1.3545453     -105629.15      338.03929      46463.927      497.97437    
     65800  -105630.39      1.191633      -105629.2       297.38304      45997.144      497.97437    
     65900  -105630.87      1.4767959     -105629.4       368.54808      40768.076      497.97437    
     66000  -105630.78      1.0452752     -105629.73      260.8581       41492.841      497.97437    
     66100  -105631.18      1.2990913     -105629.88      324.20026      36666.328      497.97437    
     66200  -105630.85      0.89669666    -105629.95      223.77894      40238.369      497.97437    
     66300  -105630.93      1.0173701     -105629.91      253.89411      39847.993      497.97437    
     66400  -105630.9       1.109204      -105629.79      276.81211      39866.525      497.97437    
     66500  -105630.89      1.2817721     -105629.61      319.87807      39592.269      497.97437    
     66600  -105630.82      1.3154842     -105629.51      328.29126      41361.983      497.97437    
     66700  -105630.5       1.0399438     -105629.46      259.5276       45002.37       497.97437    
     66800  -105630.71      1.3236476     -105629.38      330.3285       42197.971      497.97437    
     66900  -105630.87      1.5198918     -105629.35      379.30305      39762.054      497.97437    
     67000  -105630.6       1.1124011     -105629.48      277.60999      44918.026      497.97437    
     67100  -105630.83      1.126274      -105629.71      281.07209      42132.439      497.97437    
     67200  -105630.93      0.95959266    -105629.97      239.47522      38808.064      497.97437    
     67300  -105631.19      1.1371607     -105630.05      283.78896      35740.326      497.97437    
     67400  -105630.97      0.92397128    -105630.05      230.58558      38091.897      497.97437    
     67500  -105631.07      1.0988235     -105629.97      274.22158      36823.553      497.97437    
     67600  -105630.91      1.0737721     -105629.84      267.96976      40043.073      497.97437    
     67700  -105630.72      1.0027033     -105629.71      250.23389      41706.178      497.97437    
     67800  -105630.97      1.4143443     -105629.55      352.96269      39515.103      497.97437    
     67900  -105630.76      1.2403289     -105629.52      309.53554      41400.395      497.97437    
     68000  -105630.62      1.1065038     -105629.52      276.13825      42799.259      497.97437    
     68100  -105630.67      1.1899452     -105629.48      296.96182      41430.49       497.97437    
     68200  -105631.04      1.5930641     -105629.45      397.56388      38808.559      497.97437    
     68300  -105630.54      0.94612648    -105629.59      236.11461      40955.888      497.97437    
     68400  -105630.91      1.1801177     -105629.73      294.50929      38790.898      497.97437    
     68500  -105630.95      0.98528175    -105629.96      245.88617      38243.958      497.97437    
     68600  -105631.21      1.0855627     -105630.12      270.91222      36004.349      497.97437    
     68700  -105631.03      0.85670962    -105630.17      213.79981      37749.76       497.97437    
     68800  -105631.07      0.96614283    -105630.11      241.10988      36669.636      497.97437    
     68900  -105631.07      1.0660679     -105630         266.0471       36808.656      497.97437    
     69000  -105630.8       0.892544      -105629.91      222.74261      37994.535      497.97437    
     69100  -105631.06      1.2617082     -105629.8       314.87095      37049.619      497.97437    
     69200  -105630.91      1.1936009     -105629.71      297.87415      38549.545      497.97437    
     69300  -105630.68      1.0179834     -105629.66      254.04717      42892.867      497.97437    
     69400  -105630.82      1.2912833     -105629.53      322.2517       41476.363      497.97437    
     69500  -105630.7       1.2782227     -105629.42      318.99229      41824.562      497.97437    
     69600  -105630.63      1.273129      -105629.36      317.72111      42721.372      497.97437    
     69700  -105630.73      1.4128094     -105629.32      352.57965      42431.565      497.97437    
     69800  -105630.59      1.209111      -105629.38      301.74482      42829.714      497.97437    
     69900  -105630.86      1.2698873     -105629.59      316.91213      40951.521      497.97437    
     70000  -105630.74      0.93956743    -105629.8       234.47774      40518.981      497.97437    
     70100  -105631.17      1.2794311     -105629.89      319.29386      36820.966      497.97437    
     70200  -105630.94      0.9684526     -105629.97      241.6863       38881.628      497.97437    
     70300  -105630.91      0.95176611    -105629.96      237.52203      38025.948      497.97437    
     70400  -105631.11      1.285516      -105629.82      320.81241      37290.113      497.97437    
     70500  -105630.64      0.98674513    -105629.66      246.25137      42897.441      497.97437    
     70600  -105630.71      1.2388486     -105629.47      309.16613      42397.851      497.97437    
     70700  -105630.76      1.4095927     -105629.35      351.7769       40204.92       497.97437    
     70800  -105630.75      1.37382       -105629.38      342.84949      42485.522      497.97437    
     70900  -105630.57      1.1181528     -105629.45      279.04537      45243.382      497.97437    
     71000  -105630.68      1.2017279     -105629.48      299.9023       41608.295      497.97437    
     71100  -105630.92      1.3953634     -105629.53      348.22583      39183.395      497.97437    
     71200  -105630.74      1.0854611     -105629.66      270.88685      40934.048      497.97437    
     71300  -105630.96      1.1714783     -105629.79      292.35325      38157.531      497.97437    
     71400  -105630.91      0.97787193    -105629.93      244.03698      39639.804      497.97437    
     71500  -105630.97      0.95898894    -105630.01      239.32456      39850.65       497.97437    
     71600  -105631.06      1.0284595     -105630.04      256.66157      37169.751      497.97437    
     71700  -105631.16      1.1852148     -105629.97      295.78133      35133.548      497.97437    
     71800  -105630.83      1.0014914     -105629.83      249.93143      40018.664      497.97437    
     71900  -105630.67      1.0582546     -105629.61      264.09722      40841.506      497.97437    
     72000  -105630.89      1.4786806     -105629.41      369.01842      40428.721      497.97437    
     72100  -105630.67      1.2950989     -105629.38      323.20391      42865.014      497.97437    
     72200  -105630.39      0.99802572    -105629.39      249.06655      45302.448      497.97437    
     72300  -105630.86      1.5198714     -105629.34      379.29797      41124.773      497.97437    
     72400  -105630.74      1.3174084     -105629.42      328.77145      41438.672      497.97437    
     72500  -105630.66      1.0648096     -105629.59      265.73307      41847.159      497.97437    
     72600  -105630.92      1.1962841     -105629.73      298.54375      38566.334      497.97437    
     72700  -105631.04      1.1671583     -105629.87      291.27515      37915.389      497.97437    
     72800  -105630.9       0.93865937    -105629.96      234.25112      38263.878      497.97437    
     72900  -105631.02      1.0696217     -105629.96      266.934        37159.898      497.97437    
     73000  -105630.98      1.1272162     -105629.85      281.30723      37954.054      497.97437    
     73100  -105630.81      1.2573943     -105629.55      313.79437      41785.321      497.97437    
     73200  -105630.54      1.2932987     -105629.24      322.75465      42256.827      497.97437    
     73300  -105630.53      1.361263      -105629.17      339.71578      43829.749      497.97437    
     73400  -105630.49      1.2970694     -105629.2       323.69566      46073.988      497.97437    
     73500  -105630.58      1.3010811     -105629.28      324.69683      45824.866      497.97437    
     73600  -105630.92      1.4744156     -105629.44      367.95405      40196.322      497.97437    
     73700  -105630.76      1.0755047     -105629.69      268.40215      38780.186      497.97437    
     73800  -105630.8       1.0280107     -105629.77      256.54957      41058.248      497.97437    
     73900  -105631.02      1.2481765     -105629.78      311.49398      37717.878      497.97437    
     74000  -105630.99      1.1930288     -105629.79      297.73138      38640.561      497.97437    
[...]
    181900  -105631.1       0.91456048    -105630.18      228.23703      37317.086      497.97437    
    182000  -105630.96      0.81826992    -105630.14      204.20683      37698.016      497.97437    
    182100  -105631.17      1.2047681     -105629.97      300.66103      35366.884      497.97437    
    182200  -105630.82      0.96111604    -105629.86      239.8554       40998.726      497.97437    
    182300  -105630.93      1.146622      -105629.78      286.15013      40068.946      497.97437    
    182400  -105630.84      1.1353825     -105629.71      283.3452       41000.597      497.97437    
    182500  -105630.76      1.1479931     -105629.62      286.49228      41024.412      497.97437    
    182600  -105630.8       1.3076173     -105629.5       326.32799      41805.924      497.97437    
    182700  -105630.67      1.2576625     -105629.41      313.86132      41632.873      497.97437    
    182800  -105630.74      1.3825893     -105629.36      345.03794      42341.647      497.97437    
    182900  -105630.61      1.2292823     -105629.38      306.77876      43670.066      497.97437    
    183000  -105630.77      1.3000414     -105629.47      324.43735      42110.351      497.97437    
    183100  -105630.75      1.0928881     -105629.66      272.74033      40514.934      497.97437    
    183200  -105630.93      1.0853801     -105629.85      270.86664      39606.104      497.97437    
    183300  -105631.01      1.0700625     -105629.94      267.044        37564.233      497.97437    
    183400  -105631.13      1.1487815     -105629.98      286.68906      36099.23       497.97437    
    183500  -105630.81      0.83950932    -105629.97      209.50732      38232.668      497.97437    
    183600  -105631.09      1.2788798     -105629.81      319.15628      37740.42       497.97437    
    183700  -105630.7       1.0858229     -105629.62      270.97714      40886.376      497.97437    
    183800  -105630.67      1.2195743     -105629.45      304.35605      40568.259      497.97437    
    183900  -105630.81      1.409427      -105629.4       351.73553      40918.401      497.97437    
    184000  -105630.64      1.18603       -105629.45      295.98475      43176.319      497.97437    
    184100  -105630.75      1.2532852     -105629.49      312.76892      43333.842      497.97437    
    184200  -105630.71      1.1645649     -105629.55      290.62793      43829.748      497.97437    
    184300  -105630.89      1.2850411     -105629.61      320.69388      38987.759      497.97437    
    184400  -105630.81      1.0934374     -105629.72      272.87743      40923.033      497.97437    
    184500  -105630.94      1.1371042     -105629.81      283.77488      38042.089      497.97437    
    184600  -105630.95      1.0446368     -105629.9       260.69877      38348.609      497.97437    
    184700  -105630.94      0.98388303    -105629.96      245.53711      37678.984      497.97437    
    184800  -105631.12      1.1636815     -105629.96      290.40749      36732.242      497.97437    
    184900  -105630.92      1.0212444     -105629.9       254.86097      38838.288      497.97437    
    185000  -105630.81      1.0846584     -105629.73      270.68653      38869.386      497.97437    
    185100  -105630.74      1.2397714     -105629.5       309.39643      39887.496      497.97437    
    185200  -105630.87      1.5105166     -105629.36      376.96339      40483.031      497.97437    
    185300  -105630.47      1.1011156     -105629.37      274.79357      45064.081      497.97437    
    185400  -105630.71      1.330889      -105629.38      332.13566      42425.363      497.97437    
    185500  -105630.7       1.2653517     -105629.43      315.78022      43526.887      497.97437    
    185600  -105630.75      1.1916332     -105629.56      297.38308      41741.736      497.97437    
    185700  -105630.93      1.1697553     -105629.76      291.92326      40452.418      497.97437    
    185800  -105630.99      1.0465527     -105629.95      261.17691      38292.399      497.97437    
    185900  -105631.02      0.99204165    -105630.03      247.57317      38188.89       497.97437    
    186000  -105630.98      0.96555337    -105630.01      240.96277      38214.194      497.97437    
    186100  -105631.07      1.1413067     -105629.93      284.82364      37745.833      497.97437    
    186200  -105630.91      1.0493018     -105629.86      261.86297      38834.802      497.97437    
    186300  -105630.84      1.0520183     -105629.79      262.5409       41426.131      497.97437    
    186400  -105630.8       1.106618      -105629.69      276.16675      42194.679      497.97437    
    186500  -105630.96      1.3612325     -105629.6       339.70816      39940.577      497.97437    
    186600  -105630.72      1.1522471     -105629.57      287.55393      42010.208      497.97437    
    186700  -105630.71      1.1682089     -105629.54      291.53734      42434.896      497.97437    
    186800  -105630.86      1.3767456     -105629.48      343.5796       41308.256      497.97437    
    186900  -105630.64      1.1689966     -105629.48      291.73391      41676.03       497.97437    
    187000  -105630.78      1.3016566     -105629.48      324.84043      42267.236      497.97437    
    187100  -105630.73      1.1893561     -105629.54      296.81481      43409.49       497.97437    
    187200  -105630.72      1.1006544     -105629.62      274.67849      43229.531      497.97437    
    187300  -105630.89      1.2142041     -105629.68      303.01586      39345.511      497.97437    
    187400  -105630.95      1.1909371     -105629.76      297.20938      38247.231      497.97437    
    187500  -105630.96      1.1085701     -105629.85      276.65391      38947.526      497.97437    
    187600  -105630.91      1.0054819     -105629.91      250.92732      38990.613      497.97437    
    187700  -105630.91      1.0146034     -105629.89      253.20366      39573.629      497.97437    
    187800  -105630.95      1.1945064     -105629.76      298.10013      38330.788      497.97437    
    187900  -105630.85      1.3186129     -105629.53      329.07203      40773.469      497.97437    
    188000  -105630.63      1.2599084     -105629.37      314.42179      43174.474      497.97437    
    188100  -105630.49      1.2068893     -105629.28      301.19038      43884.257      497.97437    
    188200  -105630.66      1.4318855     -105629.23      357.34026      43697.019      497.97437    
    188300  -105630.67      1.3860611     -105629.29      345.90437      43752.377      497.97437    
    188400  -105630.78      1.3458981     -105629.44      335.88132      40935.013      497.97437    
    188500  -105630.65      1.0766181     -105629.57      268.68         39967.781      497.97437    
    188600  -105630.86      1.2659235     -105629.59      315.92293      40259.3        497.97437    
    188700  -105630.86      1.2418134     -105629.62      309.90603      40898.939      497.97437    
    188800  -105630.74      1.0899415     -105629.65      272.00498      41499.174      497.97437    
    188900  -105630.82      1.1907398     -105629.63      297.16014      39568.78       497.97437    
    189000  -105630.8       1.204391      -105629.59      300.56691      40382.107      497.97437    
    189100  -105630.92      1.3690971     -105629.55      341.67083      38226.734      497.97437    
    189200  -105630.61      1.0522496     -105629.55      262.59861      41027.963      497.97437    
    189300  -105630.94      1.422483      -105629.52      354.99378      38405.314      497.97437    
    189400  -105630.59      1.0567885     -105629.53      263.73135      43611.131      497.97437    
    189500  -105630.79      1.2760897     -105629.52      318.45998      42579.28       497.97437    
    189600  -105630.71      1.1986522     -105629.51      299.13473      41754.894      497.97437    
    189700  -105630.79      1.2779966     -105629.52      318.93587      40865.202      497.97437    
    189800  -105630.87      1.2980892     -105629.57      323.95016      39245.993      497.97437    
    189900  -105630.68      1.0031677     -105629.67      250.34978      41957.461      497.97437    
    190000  -105630.91      1.1844456     -105629.73      295.58934      39477.809      497.97437    
    190100  -105631.08      1.2651361     -105629.81      315.7264       37245.993      497.97437    
    190200  -105630.8       0.87716154    -105629.92      218.90377      38483.288      497.97437    
    190300  -105631.05      1.1058214     -105629.95      275.96796      37676.2        497.97437    
    190400  -105630.93      1.0151286     -105629.92      253.33473      38398.162      497.97437    
    190500  -105631.07      1.3259898     -105629.74      330.913        38423.195      497.97437    
    190600  -105630.6       1.0602888     -105629.54      264.60487      42256.043      497.97437    
    190700  -105630.66      1.3213182     -105629.34      329.74718      40657.97       497.97437    
    190800  -105630.66      1.4153241     -105629.24      353.20723      44123.9        497.97437    
    190900  -105630.71      1.4204062     -105629.29      354.4755       43148.375      497.97437    
    191000  -105630.66      1.2351329     -105629.42      308.23885      43805.245      497.97437    
    191100  -105630.6       1.0837742     -105629.51      270.46587      43947.618      497.97437    
    191200  -105630.81      1.2550813     -105629.56      313.21715      41388.69       497.97437    
    191300  -105630.86      1.2615829     -105629.6       314.83968      39470.449      497.97437    
    191400  -105631.06      1.3521241     -105629.7       337.43506      37199.405      497.97437    
    191500  -105630.61      0.80035244    -105629.81      199.73535      40907.259      497.97437    
    191600  -105630.98      1.1949556     -105629.78      298.21221      39648.639      497.97437    
    191700  -105630.97      1.3387908     -105629.63      334.10763      38408.395      497.97437    
    191800  -105630.58      1.3265892     -105629.25      331.0626       42667.875      497.97437    
    191900  -105630.57      1.5582354     -105629.01      388.87205      45308.886      497.97437    
    192000  -105630.11      1.1199587     -105628.99      279.49604      47689.371      497.97437    
    192100  -105630.62      1.6269231     -105628.99      406.01371      44545.446      497.97437    
    192200  -105630.64      1.4256403     -105629.22      355.78172      43447.354      497.97437    
    192300  -105630.91      1.4013264     -105629.51      349.71396      40209.258      497.97437    
    192400  -105630.68      0.99809206    -105629.68      249.0831       42398.8        497.97437    
    192500  -105630.79      1.0887931     -105629.7       271.71839      40997.667      497.97437    
    192600  -105631.04      1.3608892     -105629.68      339.62248      37608.541      497.97437    
    192700  -105630.86      1.1531793     -105629.71      287.78656      40364.194      497.97437    
    192800  -105630.84      1.1121821     -105629.73      277.55534      40227.757      497.97437    
    192900  -105630.7       0.99366808    -105629.71      247.97906      41870.163      497.97437    
    193000  -105630.96      1.4074119     -105629.55      351.23267      40019.899      497.97437    
    193100  -105630.84      1.4637109     -105629.38      365.28258      39637.656      497.97437    
    193200  -105630.43      1.1119946     -105629.32      277.50854      43421.351      497.97437    
    193300  -105630.6       1.3802492     -105629.22      344.45395      45320.645      497.97437    
    193400  -105630.43      1.3197738     -105629.11      329.36177      46458.589      497.97437    
    193500  -105630.71      1.6732886     -105629.04      417.58463      44753.642      497.97437    
    193600  -105630.55      1.3226008     -105629.23      330.06727      44482.407      497.97437    
    193700  -105630.51      1.0547156     -105629.45      263.21404      44889.207      497.97437    
    193800  -105630.83      1.2519301     -105629.58      312.43075      41091.535      497.97437    
    193900  -105630.98      1.294687      -105629.69      323.10112      39115.753      497.97437    
    194000  -105630.91      1.1109859     -105629.8       277.2568       39007.563      497.97437    
    194100  -105630.88      1.0273932     -105629.86      256.39547      39941.007      497.97437    
    194200  -105630.79      0.96520167    -105629.82      240.875        40618.972      497.97437    
    194300  -105631.04      1.3659891     -105629.68      340.89521      38377.67       497.97437    
    194400  -105630.73      1.1982695     -105629.53      299.03923      42843.094      497.97437    
    194500  -105630.8       1.4775749     -105629.32      368.74248      42745.873      497.97437    
    194600  -105630.25      1.154917      -105629.09      288.22021      47129.618      497.97437    
    194700  -105630.42      1.6993285     -105628.72      424.08313      47951.389      497.97437    
    194800  -105630.23      1.5655786     -105628.67      390.70462      47814.238      497.97437    
    194900  -105630.56      1.7208337     -105628.84      429.44995      43603.076      497.97437    
    195000  -105630.46      1.3357979     -105629.12      333.36073      46853.11       497.97437    
    195100  -105630.45      1.1822973     -105629.26      295.05321      46809.246      497.97437    
    195200  -105630.92      1.5146374     -105629.4       377.99176      40405.548      497.97437    
    195300  -105630.79      1.1765533     -105629.62      293.61976      41908.639      497.97437    
    195400  -105630.91      1.1423765     -105629.77      285.09063      38856.641      497.97437    
    195500  -105630.72      0.90493954    -105629.82      225.83603      39103.272      497.97437    
    195600  -105631.08      1.310915      -105629.77      327.15097      36834.954      497.97437    
    195700  -105630.95      1.2247085     -105629.73      305.63733      39249.752      497.97437    
    195800  -105630.85      1.1453653     -105629.71      285.83649      41862.788      497.97437    
    195900  -105630.55      0.92927907    -105629.62      231.91019      42679.957      497.97437    
    196000  -105630.79      1.4600202     -105629.33      364.36154      41258.014      497.97437    
    196100  -105630.7       1.5339125     -105629.16      382.80204      42450.431      497.97437    
    196200  -105630.39      1.1895755     -105629.2       296.86957      45563.909      497.97437    
    196300  -105630.8       1.515456      -105629.28      378.19606      40328.527      497.97437    
    196400  -105630.47      1.0148706     -105629.45      253.27033      45022.192      497.97437    
    196500  -105630.93      1.3891589     -105629.54      346.67745      39303.432      497.97437    
    196600  -105630.91      1.2101585     -105629.7       302.00623      37937.236      497.97437    
    196700  -105630.88      1.0853499     -105629.79      270.8591       39785.98       497.97437    
    196800  -105630.82      1.0226992     -105629.8       255.22403      42109.104      497.97437    
    196900  -105630.83      1.0743643     -105629.75      268.11754      39211.936      497.97437    
    197000  -105631.04      1.3458923     -105629.69      335.87986      37478.459      497.97437    
    197100  -105630.82      1.1332682     -105629.69      282.81756      41977.776      497.97437    
    197200  -105630.69      1.0218164     -105629.66      255.00373      42269.314      497.97437    
    197300  -105630.94      1.3764683     -105629.56      343.51041      39578.911      497.97437    
    197400  -105630.62      1.1202699     -105629.5       279.57372      42675.778      497.97437    
    197500  -105630.78      1.4107337     -105629.37      352.06164      42619.334      497.97437    
    197600  -105630.63      1.4654939     -105629.16      365.72755      43961.845      497.97437    
    197700  -105630.34      1.3759674     -105628.97      343.3854       46168.879      497.97437    
    197800  -105630.12      1.2986247     -105628.82      324.08379      47974.694      497.97437    
    197900  -105630.72      1.9992031     -105628.72      498.91963      44142.672      497.97437    
    198000  -105630.48      1.3927302     -105629.09      347.56871      44007.873      497.97437    
    198100  -105630.45      1.1382968     -105629.32      284.07248      47756.575      497.97437    
    198200  -105630.67      1.2753807     -105629.39      318.28305      42204.711      497.97437    
    198300  -105631         1.4973274     -105629.5       373.67189      38901.636      497.97437    
    198400  -105630.8       1.0875393     -105629.71      271.40548      40345.081      497.97437    
    198500  -105630.73      0.93649822    -105629.8       233.71179      41284.804      497.97437    
    198600  -105631.03      1.2458872     -105629.78      310.92266      36471.626      497.97437    
    198700  -105630.91      1.1531033     -105629.76      287.76759      38569.015      497.97437    
    198800  -105630.87      1.155994      -105629.71      288.489        38435.099      497.97437    
    198900  -105630.85      1.2494981     -105629.6       311.82381      40305.197      497.97437    
    199000  -105630.7       1.3162802     -105629.39      328.48989      42527.954      497.97437    
    199100  -105630.33      1.1324408     -105629.19      282.61106      46509.895      497.97437    
    199200  -105630.66      1.6472784     -105629.01      411.09355      44106.169      497.97437    
    199300  -105630.68      1.6090494     -105629.08      401.55316      42013.956      497.97437    
    199400  -105630.44      1.17767       -105629.26      293.89843      47935.036      497.97437    
    199500  -105630.59      1.2492906     -105629.34      311.77202      42199.535      497.97437    
    199600  -105630.75      1.3394163     -105629.41      334.26373      41231.599      497.97437    
    199700  -105630.85      1.332529      -105629.51      332.54494      40280.245      497.97437    
    199800  -105630.83      1.1753049     -105629.66      293.30821      41876.782      497.97437    
    199900  -105630.81      1.0746981     -105629.73      268.20086      38891.869      497.97437    
    200000  -105630.93      1.1742442     -105629.76      293.0435       40233.022      497.97437    
Loop time of 282.254 on 2 procs for 200000 steps with 32 atoms

Performance: 30.611 ns/day, 0.784 hours/ns, 708.582 timesteps/s, 22.675 katom-step/s
97.5% CPU use with 1 MPI tasks x 2 OpenMP threads

MPI task timing breakdown:
Section |  min time  |  avg time  |  max time  |%varavg| %total
---------------------------------------------------------------
Pair    | 277.65     | 277.65     | 277.65     |   0.0 | 98.37
Neigh   | 2.7907     | 2.7907     | 2.7907     |   0.0 |  0.99
Comm    | 0.98147    | 0.98147    | 0.98147    |   0.0 |  0.35
Output  | 0.072733   | 0.072733   | 0.072733   |   0.0 |  0.03
Modify  | 0.60126    | 0.60126    | 0.60126    |   0.0 |  0.21
Other   |            | 0.1622     |            |       |  0.06

Nlocal:             32 ave          32 max          32 min
Histogram: 1 0 0 0 0 0 0 0 0 0
Nghost:            966 ave         966 max         966 min
Histogram: 1 0 0 0 0 0 0 0 0 0
Neighs:              0 ave           0 max           0 min
Histogram: 1 0 0 0 0 0 0 0 0 0
FullNghs:         4416 ave        4416 max        4416 min
Histogram: 1 0 0 0 0 0 0 0 0 0

Total # of neighbors = 4416
Ave neighs/atom = 138
Neighbor list builds = 20000
Dangerous builds not checked

write_restart   lammps.restart
System init for write_restart ...
Generated 0 of 0 mixed pair_coeff terms from geometric mixing rule
Total wall time: 0:05:41
