LAMMPS (2 Aug 2023 - Update 1)
  using 2 OpenMP thread(s) per MPI task
Loaded 1 plugins from /home/ch24d003/.conda/envs/deepmd_gpu/lib/deepmd_lmp
plugin load     libdeepmd_lmp.so

units           metal

boundary        p p p

atom_style      atomic

neighbor        2.0 bin

neigh_modify    every 10 delay 0 check no

read_data       /scratch/ch24d003/ActiveLearning_Pt/bulk/bulk.lmp
Reading data file ...
  orthogonal box = (0 0 0) to (7.8948334 7.8700436 8.0146928)
  1 by 1 by 1 MPI processor grid
  reading atoms ...
  32 atoms
  read_data CPU = 0.081 seconds

mass            1 195.084

pair_style deepmd /scratch/ch24d003/ActiveLearning_Pt/DP_models/1/graph1.pb /scratch/ch24d003/ActiveLearning_Pt/DP_models/2/graph2.pb /scratch/ch24d003/ActiveLearning_Pt/DP_models/3/graph3.pb out_file md.out out_freq 100
Summary of lammps deepmd module ...
  >>> Info of deepmd-kit:
  installed to:       /home/ch24d003/.conda/envs/deepmd_gpu
  source:             v2.2.9
  source branch:      HEAD
  source commit:      be437483
  source commit at:   2024-02-04 13:44:12 +0800
  support model ver.: 1.1 
  build variant:      cuda
  build with tf inc:  /home/ch24d003/.conda/envs/deepmd_gpu/include;/home/ch24d003/.conda/envs/deepmd_gpu/include
  build with tf lib:  /home/ch24d003/.conda/envs/deepmd_gpu/lib/libtensorflow_cc.so
  set tf intra_op_parallelism_threads: 0
  set tf inter_op_parallelism_threads: 0
  >>> Info of lammps module:
  use deepmd-kit at:  /home/ch24d003/.conda/envs/deepmd_gpu
pair_coeff      * *

velocity        all create 700 12345678

fix             1 all nvt temp 700 700 0.1

timestep        0.0005

thermo_style    custom step pe ke etotal temp press vol

thermo          100

dump            1 all dcd 100 bulk.dcd

timer timeout   03:00:00 every 100
New timer settings: style=normal  mode=nosync  timeout=03:00:00

run             200000

CITE-CITE-CITE-CITE-CITE-CITE-CITE-CITE-CITE-CITE-CITE-CITE-CITE

Your simulation uses code contributions which should be cited:

- USER-DEEPMD package:

@article{Wang_ComputPhysCommun_2018_v228_p178,
  author = {Wang, Han and Zhang, Linfeng and Han, Jiequn and E, Weinan},
  doi = {10.1016/j.cpc.2018.03.016},
  url = {https://doi.org/10.1016/j.cpc.2018.03.016},
  year = 2018,
  month = {jul},
  publisher = {Elsevier {BV}},
  volume = 228,
  journal = {Comput. Phys. Commun.},
  title = {{DeePMD-kit: A deep learning package for many-body potential energy representation and molecular dynamics}},
  pages = {178--184}
}
@misc{Zeng_JChemPhys_2023_v159_p054801,
  title  = {{DeePMD-kit v2: A software package for deep potential models}},
  author =   {Jinzhe Zeng and Duo Zhang and Denghui Lu and Pinghui Mo and Zeyu Li
         and Yixiao Chen and Mari{\'a}n Rynik and Li'ang Huang and Ziyao Li and 
         Shaochen Shi and Yingze Wang and Haotian Ye and Ping Tuo and Jiabin
         Yang and Ye Ding and Yifan Li and Davide Tisi and Qiyu Zeng and Han 
         Bao and Yu Xia and Jiameng Huang and Koki Muraoka and Yibo Wang and 
         Junhan Chang and Fengbo Yuan and Sigbj{\o}rn L{\o}land Bore and Chun
         Cai and Yinnian Lin and Bo Wang and Jiayan Xu and Jia-Xin Zhu and 
         Chenxing Luo and Yuzhi Zhang and Rhys E A Goodall and Wenshuo Liang
         and Anurag Kumar Singh and Sikai Yao and Jingchao Zhang and Renata
         Wentzcovitch and Jiequn Han and Jie Liu and Weile Jia and Darrin M
         York and Weinan E and Roberto Car and Linfeng Zhang and Han Wang},
  journal =  {J. Chem. Phys.},
  volume =   159,
  issue =    5,  
  year =    2023,
  pages  =   054801,
  doi =      {10.1063/5.0155600},
}

CITE-CITE-CITE-CITE-CITE-CITE-CITE-CITE-CITE-CITE-CITE-CITE-CITE

Generated 0 of 0 mixed pair_coeff terms from geometric mixing rule
Neighbor list info ...
  update: every = 10 steps, delay = 0 steps, check = no
  max neighbors/atom: 2000, page size: 100000
  master list distance cutoff = 8
  ghost atom cutoff = 8
  binsize = 4, bins = 2 2 3
  1 neighbor lists, perpetual/occasional/extra = 1 0 0
  (1) pair deepmd, perpetual
      attributes: full, newton on
      pair build: full/bin/atomonly
      stencil: full/bin/3d
      bin: standard
Per MPI rank memory allocation (min/avg/max) = 3.499 | 3.499 | 3.499 Mbytes
   Step         PotEng         KinEng         TotEng          Temp          Press          Volume    
         0  -105632.03      2.8049451     -105629.22      700            25778.285      497.97437    
       100  -105630.02      0.86001695    -105629.16      214.62518      47612.264      497.97437    
       200  -105630.15      1.2297747     -105628.92      306.90164      51626.011      497.97437    
       300  -105630         1.4007523     -105628.6       349.5707       50076.082      497.97437    
       400  -105630.57      2.4253874     -105628.15      605.27785      46398.267      497.97437    
       500  -105630.01      2.4148018     -105627.6       602.63613      51100.706      497.97437    
       600  -105629.08      1.9169182     -105627.17      478.38465      54379.136      497.97437    
       700  -105628.91      2.2728093     -105626.64      567.20058      57065.704      497.97437    
       800  -105629.04      2.9615672     -105626.08      739.08647      63473.813      497.97437    
       900  -105628.72      3.0461281     -105625.67      760.18943      62418.138      497.97437    
      1000  -105629.03      3.5830938     -105625.45      894.19419      57624.876      497.97437    
      1100  -105628.24      2.6551349     -105625.58      662.61348      63311.811      497.97437    
      1200  -105628.14      2.4600759     -105625.68      613.9347       67721.614      497.97437    
      1300  -105629         3.3330261     -105625.67      831.78748      62245.62       497.97437    
      1400  -105629.29      3.3175706     -105625.97      827.93043      57406.159      497.97437    
      1500  -105628.63      2.2396816     -105626.39      558.93325      65548.003      497.97437    
      1600  -105629.12      2.5677016     -105626.55      640.79367      59860.364      497.97437    
      1700  -105629.31      2.7152558     -105626.6       677.6172       56741.77       497.97437    
      1800  -105629.43      2.8179755     -105626.61      703.25185      52764.124      497.97437    
      1900  -105628.79      2.1635374     -105626.62      539.93077      59495.276      497.97437    
      2000  -105629.23      2.9088462     -105626.32      725.92948      57996.041      497.97437    
      2100  -105629.38      3.6502474     -105625.73      910.953        56368.445      497.97437    
      2200  -105627.82      2.2718599     -105625.55      566.96366      62437.034      497.97437    
      2300  -105628.2       2.9679916     -105625.24      740.68975      68581.558      497.97437    
      2400  -105628.53      3.626231      -105624.9       904.95949      68027.174      497.97437    
      2500  -105628.2       3.2165445     -105624.99      802.71844      67584.419      497.97437    
      2600  -105628.48      3.026424      -105625.46      755.27209      63431.082      497.97437    
      2700  -105628.52      2.4085198     -105626.11      601.06839      62059.925      497.97437    
      2800  -105629.44      3.0262583     -105626.41      755.23076      58033.772      497.97437    
      2900  -105629.18      2.6390868     -105626.54      658.60851      56380.043      497.97437    
      3000  -105629.16      2.6078822     -105626.56      650.82113      56533.95       497.97437    
      3100  -105629.05      2.5845212     -105626.47      644.99117      54711.767      497.97437    
      3200  -105629.15      2.8895385     -105626.26      721.11105      57017.839      497.97437    
      3300  -105628.65      2.6160882     -105626.03      652.86901      58151.679      497.97437    
      3400  -105628.67      3.0139837     -105625.66      752.16751      60770.777      497.97437    
      3500  -105628.74      3.4084485     -105625.33      850.60984      65188.581      497.97437    
      3600  -105628.32      3.0389991     -105625.28      758.41032      68500.44       497.97437    
      3700  -105628.29      2.8837868     -105625.41      719.67567      68069.274      497.97437    
      3800  -105628.52      2.7281052     -105625.79      680.82389      62178.386      497.97437    
      3900  -105628.92      2.5443329     -105626.37      634.9618       57870.465      497.97437    
      4000  -105629.53      2.7611997     -105626.77      689.08293      56570.494      497.97437    
      4100  -105629.72      2.7317922     -105626.99      681.74399      54472.735      497.97437    
      4200  -105629.47      2.3567077     -105627.12      588.13819      58044.703      497.97437    
      4300  -105628.79      1.7583217     -105627.03      438.80544      58941.51       497.97437    
      4400  -105629.53      2.9472039     -105626.59      735.50199      56228.305      497.97437    
      4500  -105629.36      3.0891519     -105626.27      770.92642      58331.796      497.97437    
      4600  -105628.97      2.7406336     -105626.23      683.95046      58908.583      497.97437    
      4700  -105628.53      2.3515749     -105626.18      586.85726      61914.866      497.97437    
      4800  -105628.6       2.6291233     -105625.97      656.12204      63521.6        497.97437    
      4900  -105629.08      3.3824761     -105625.7       844.1282       66579.292      497.97437    
      5000  -105628.5       2.8501343     -105625.65      711.27736      64576.214      497.97437    
      5100  -105628.8       3.1048849     -105625.69      774.85274      62730.828      497.97437    
      5200  -105628.34      2.4138685     -105625.93      602.40319      60356.038      497.97437    
      5300  -105629.22      2.8591588     -105626.36      713.52952      62090.516      497.97437    
      5400  -105629.46      2.4979783     -105626.96      623.39357      58289.528      497.97437    
      5500  -105629.56      2.3317027     -105627.23      581.89798      56017.684      497.97437    
      5600  -105629.62      2.3753398     -105627.24      592.78802      55451.283      497.97437    
      5700  -105629.24      2.1748804     -105627.07      542.76152      56715.527      497.97437    
      5800  -105629.5       2.827506      -105626.67      705.63026      61547.459      497.97437    
      5900  -105629.09      2.7692641     -105626.32      691.09546      56853.437      497.97437    
      6000  -105628.39      2.2360073     -105626.15      558.01631      60505.899      497.97437    
      6100  -105628.97      3.0576288     -105625.91      763.05954      60499.991      497.97437    
      6200  -105629.17      3.3284313     -105625.84      830.64081      61946.921      497.97437    
      6300  -105628.67      2.6839297     -105625.99      669.79947      65712.703      497.97437    
      6400  -105628.33      2.2713866     -105626.06      566.84554      63581.824      497.97437    
      6500  -105629.1       3.1812733     -105625.92      793.91618      59757.51       497.97437    
      6600  -105629         3.1629241     -105625.84      789.33695      66198.771      497.97437    
      6700  -105628.73      2.7582222     -105625.97      688.33986      65462.497      497.97437    
      6800  -105628.67      2.436945      -105626.24      608.16215      59915.218      497.97437    
      6900  -105629.04      2.5717423     -105626.47      641.80208      56332.36       497.97437    
      7000  -105629.38      2.7369808     -105626.65      683.03886      57465.866      497.97437    
      7100  -105629.49      2.6654382     -105626.83      665.18475      58355.28       497.97437    
      7200  -105629.32      2.3660715     -105626.96      590.47502      52763.204      497.97437    
      7300  -105629.34      2.4136442     -105626.93      602.34723      54789.032      497.97437    
      7400  -105628.72      2.0601268     -105626.66      514.12368      63687.846      497.97437    
      7500  -105629.27      3.2199961     -105626.05      803.57981      62189.845      497.97437    
      7600  -105629.46      3.6752786     -105625.79      917.19976      58881.796      497.97437    
      7700  -105628.01      2.0966715     -105625.91      523.24375      61490.271      497.97437    
      7800  -105628.65      2.8474259     -105625.8       710.60146      66881.175      497.97437    
      7900  -105628.75      3.1265974     -105625.63      780.27128      64414.107      497.97437    
      8000  -105628.92      3.302265      -105625.62      824.11078      60286.921      497.97437    
      8100  -105628.89      2.9605893     -105625.92      738.84244      59665.458      497.97437    
      8200  -105628.33      1.9355635     -105626.39      483.03777      56484.732      497.97437    
      8300  -105629.45      2.8622409     -105626.58      714.29868      55938.587      497.97437    
      8400  -105629.77      2.874621      -105626.89      717.38826      49987.743      497.97437    
      8500  -105629.25      2.0760283     -105627.17      518.09206      55570.791      497.97437    
      8600  -105629.61      2.3779837     -105627.23      593.44783      55986.272      497.97437    
      8700  -105629.41      2.385955      -105627.02      595.43713      60192.539      497.97437    
      8800  -105629.04      2.8235638     -105626.22      704.64645      65729.797      497.97437    
      8900  -105628.05      2.31584       -105625.73      577.93928      59139.322      497.97437    
      9000  -105628.98      3.6341936     -105625.35      906.94661      58619.488      497.97437    
      9100  -105628.75      3.3574785     -105625.39      837.88981      58353.563      497.97437    
      9200  -105628.31      2.6019933     -105625.71      649.35148      66765.648      497.97437    
      9300  -105628.53      2.6086231     -105625.92      651.00602      62878.509      497.97437    
      9400  -105629.28      3.1820444     -105626.1       794.10861      55043.256      497.97437    
      9500  -105629.26      2.7652507     -105626.49      690.09389      58777.505      497.97437    
      9600  -105628.83      2.0527118     -105626.78      512.27321      57634.048      497.97437    
      9700  -105629.51      2.7228342     -105626.79      679.50846      51594.316      497.97437    
      9800  -105629.4       2.6867379     -105626.72      670.50029      53430.424      497.97437    
      9900  -105629.1       2.5943946     -105626.5       647.45515      60488.059      497.97437    
     10000  -105628.89      3.1203077     -105625.77      778.70165      64781.296      497.97437    
     10100  -105628.07      2.8642848     -105625.21      714.80876      60201.874      497.97437    
     10200  -105628.34      3.3583745     -105624.98      838.1134       63368.07       497.97437    
     10300  -105628.24      3.1680192     -105625.07      790.60849      67884.086      497.97437    
     10400  -105628.33      2.9877949     -105625.35      745.63186      60550.64       497.97437    
     10500  -105629.22      3.4619592     -105625.76      863.96393      56556.989      497.97437    
     10600  -105628.66      2.3760858     -105626.28      592.97418      63408.119      497.97437    
     10700  -105628.64      2.2740006     -105626.36      567.49787      64760.174      497.97437    
     10800  -105629.46      3.1806382     -105626.28      793.75767      54560.046      497.97437    
     10900  -105629.21      2.8695066     -105626.34      716.1119       55983.392      497.97437    
     11000  -105628.59      2.1958615     -105626.4       547.99755      59033.027      497.97437    
     11100  -105628.86      2.636991      -105626.23      658.08549      60039.777      497.97437    
     11200  -105629.26      3.4609829     -105625.8       863.72029      62085.259      497.97437    
     11300  -105628.6       3.0688883     -105625.53      765.86947      63874.26       497.97437    
     11400  -105627.64      2.3746197     -105625.26      592.60831      67069.498      497.97437    
     11500  -105628.62      4.1886712     -105624.43      1045.3216      65950.05       497.97437    
     11600  -105628.17      3.8792978     -105624.29      968.11465      64001.654      497.97437    
     11700  -105627.55      2.8393858     -105624.71      708.59498      76206.71       497.97437    
     11800  -105628.03      3.0252875     -105625.01      754.98847      71203.133      497.97437    
     11900  -105628.71      3.3682322     -105625.34      840.57349      63523.686      497.97437    
     12000  -105628.67      2.9067632     -105625.76      725.40964      66724.509      497.97437    
     12100  -105628.97      2.9376479     -105626.03      733.11719      65084.537      497.97437    
     12200  -105629.06      2.8233306     -105626.24      704.58825      59897.716      497.97437    
     12300  -105628.62      2.2836066     -105626.33      569.89513      59715.851      497.97437    
     12400  -105629.38      3.1300498     -105626.25      781.13288      57271.763      497.97437    
     12500  -105628.86      2.6301425     -105626.23      656.37639      63064.77       497.97437    
     12600  -105629.61      3.403598      -105626.2       849.39936      55561.787      497.97437    
     12700  -105628.79      2.3136979     -105626.48      577.40471      62396.705      497.97437    
     12800  -105628.32      1.6369856     -105626.69      408.52488      69174.945      497.97437    
     12900  -105629.62      3.0280723     -105626.59      755.68343      59560.715      497.97437    
     13000  -105629.9       3.3911269     -105626.51      846.28708      53253.393      497.97437    
     13100  -105629.03      2.3551326     -105626.67      587.74512      58325.173      497.97437    
     13200  -105628.95      2.2316369     -105626.72      556.92563      59228.34       497.97437    
     13300  -105628.93      2.4265992     -105626.5       605.58027      60215.161      497.97437    
     13400  -105629.27      3.2984631     -105625.97      823.16197      60765.18       497.97437    
     13500  -105628.95      3.3178789     -105625.63      828.00737      63948.482      497.97437    
     13600  -105628.34      2.7173451     -105625.63      678.1386       63620.863      497.97437    
     13700  -105628.4       2.785219      -105625.61      695.07717      63204.727      497.97437    
     13800  -105628.59      3.0055812     -105625.58      750.07057      66489.009      497.97437    
     13900  -105628.63      2.982151      -105625.65      744.22336      63460.289      497.97437    
     14000  -105629.14      3.149462      -105625.99      785.97736      59717.478      497.97437    
     14100  -105629.03      2.3417141     -105626.68      584.39642      59022.115      497.97437    
     14200  -105629.03      2.1485538     -105626.88      536.19147      59885.677      497.97437    
     14300  -105629.88      3.0162595     -105626.86      752.73544      56482.02       497.97437    
     14400  -105629.27      2.4131364     -105626.86      602.22051      58186.57       497.97437    
     14500  -105629.28      2.5959979     -105626.69      647.85528      62043.245      497.97437    
     14600  -105628.76      2.4219938     -105626.33      604.43094      65115.719      497.97437    
     14700  -105628.67      2.8579426     -105625.81      713.226        63377.974      497.97437    
     14800  -105629.32      3.8115657     -105625.5       951.21146      59341.991      497.97437    
     14900  -105628.12      2.4597562     -105625.66      613.85489      69173.557      497.97437    
     15000  -105628.97      3.2607085     -105625.71      813.73996      67079.97       497.97437    
     15100  -105628.41      2.5219194     -105625.89      629.36832      66451.806      497.97437    
     15200  -105628.8       2.8186082     -105625.98      703.40974      66861.863      497.97437    
     15300  -105629.23      3.0965633     -105626.13      772.77601      65578.229      497.97437    
     15400  -105628.77      2.2450617     -105626.53      560.27591      62530.432      497.97437    
     15500  -105629.42      2.5169607     -105626.91      628.13081      54605.468      497.97437    
     15600  -105629.86      2.570784      -105627.29      641.56292      54097.567      497.97437    
     15700  -105629.58      2.0259605     -105627.56      505.59717      58049.98       497.97437    
     15800  -105629.68      2.1694975     -105627.51      541.41815      57756.749      497.97437    
     15900  -105629.47      2.3627787     -105627.11      589.65329      56411.559      497.97437    
     16000  -105629.22      2.7043042     -105626.52      674.88411      60849.235      497.97437    
     16100  -105628.88      2.6183967     -105626.26      653.4451       64181.986      497.97437    
     16200  -105628.77      2.6466991     -105626.12      660.50823      60282.605      497.97437    
     16300  -105629.04      3.1210764     -105625.92      778.89347      61648.44       497.97437    
     16400  -105628.67      2.8200666     -105625.85      703.77369      65116.787      497.97437    
     16500  -105628.48      2.6900675     -105625.79      671.33122      67707.977      497.97437    
     16600  -105629.12      3.4441082     -105625.68      859.50904      64434.952      497.97437    
     16700  -105628.32      2.5209233     -105625.8       629.11973      59008.945      497.97437    
     16800  -105628.6       2.7196176     -105625.88      678.70572      62574.981      497.97437    
     16900  -105629.2       3.2068086     -105626         800.28874      55661.241      497.97437    
     17000  -105629.33      2.8838912     -105626.44      719.70172      56150.097      497.97437    
     17100  -105629.03      2.1786838     -105626.85      543.71069      57586.661      497.97437    
     17200  -105629.47      2.4857388     -105626.98      620.3391       60533.442      497.97437    
     17300  -105629.17      2.2296548     -105626.94      556.43097      56671.357      497.97437    
     17400  -105629.65      2.9909554     -105626.66      746.42058      53017.504      497.97437    
     17500  -105629.05      2.7491718     -105626.3       686.08125      65515.455      497.97437    
     17600  -105628.18      2.2337681     -105625.94      557.4575       65113.498      497.97437    
     17700  -105629.21      3.8774164     -105625.33      967.64511      62046.818      497.97437    
     17800  -105627.78      2.4631909     -105625.32      614.71206      70572.144      497.97437    
     17900  -105628.37      3.1071235     -105625.26      775.41141      66427.418      497.97437    
     18000  -105628.64      3.2950342     -105625.34      822.30625      64283.037      497.97437    
     18100  -105628.95      3.2342064     -105625.71      807.12613      60602.13       497.97437    
     18200  -105628.78      2.5412057     -105626.24      634.18139      64899.72       497.97437    
     18300  -105628.57      2.1603832     -105626.41      539.14359      63757.134      497.97437    
     18400  -105629.52      3.1671993     -105626.35      790.40388      62007.003      497.97437    
     18500  -105629.19      2.7761463     -105626.41      692.81297      58726.567      497.97437    
     18600  -105628.86      2.3923361     -105626.46      597.02959      56098.704      497.97437    
     18700  -105629.07      2.7586941     -105626.32      688.45761      57802.673      497.97437    
     18800  -105628.98      3.1528211     -105625.83      786.81566      60172.297      497.97437    
     18900  -105628.69      3.4548041     -105625.24      862.17831      65239.236      497.97437    
     19000  -105627.95      2.9073614     -105625.04      725.55893      69359.709      497.97437    
     19100  -105627.83      2.8873607     -105624.95      720.56757      69957.565      497.97437    
     19200  -105628.04      3.1681774     -105624.87      790.64798      65280.217      497.97437    
     19300  -105628.73      3.6892563     -105625.04      920.68802      68985.588      497.97437    
     19400  -105628.61      2.7414699     -105625.87      684.15917      68111.587      497.97437    
     19500  -105628.86      2.5260554     -105626.33      630.40048      55752.87       497.97437    
     19600  -105629.28      2.8062276     -105626.48      700.32004      57502.153      497.97437    
     19700  -105629.15      2.5825262     -105626.57      644.4933       57872.426      497.97437    
     19800  -105629.46      2.8821147     -105626.58      719.25837      60518.185      497.97437    
     19900  -105629.11      2.5118115     -105626.6       626.84578      58526.165      497.97437    
     20000  -105628.56      2.0640954     -105626.5       515.1141       57099.093      497.97437    
     20100  -105629.21      3.280408      -105625.93      818.65615      60161.865      497.97437    
     20200  -105628.98      3.4343856     -105625.55      857.08269      58763.18       497.97437    
     20300  -105628.49      2.933944      -105625.56      732.19287      56328.628      497.97437    
     20400  -105628.26      2.6393975     -105625.62      658.68605      61681.441      497.97437    
     20500  -105628.58      2.9402827     -105625.64      733.77473      65368.591      497.97437    
     20600  -105628.78      3.0173709     -105625.76      753.01282      59624.344      497.97437    
     20700  -105628.94      2.6974291     -105626.24      673.16837      59248.177      497.97437    
     20800  -105629.35      2.4774669     -105626.87      618.27477      55821.747      497.97437    
     20900  -105629.59      2.4153177     -105627.17      602.76487      55871.94       497.97437    
     21000  -105629.39      2.1957654     -105627.2       547.97355      55327.719      497.97437    
     21100  -105629.63      2.6334087     -105626.99      657.19149      51931.328      497.97437    
     21200  -105629.21      2.5197396     -105626.69      628.82433      56312.959      497.97437    
     21300  -105628.94      2.6212681     -105626.32      654.1617       64930.429      497.97437    
     21400  -105628.56      2.5477009     -105626.02      635.80231      68450.448      497.97437    
     21500  -105629.16      3.3616479     -105625.8       838.93031      62425.415      497.97437    
     21600  -105628.31      2.4956594     -105625.81      622.81488      64162.168      497.97437    
     21700  -105629.03      3.245435      -105625.78      809.92831      61700.505      497.97437    
     21800  -105628.65      2.7582512     -105625.89      688.34709      61124.076      497.97437    
     21900  -105628.83      2.7987794     -105626.03      698.46129      59371.567      497.97437    
     22000  -105629.19      2.9534604     -105626.24      737.06336      57565.612      497.97437    
     22100  -105628.88      2.223271      -105626.66      554.83784      64037.865      497.97437    
     22200  -105629.39      2.3449346     -105627.04      585.20011      59568.181      497.97437    
     22300  -105629.68      2.3357446     -105627.34      582.90667      55481.566      497.97437    
     22400  -105629.81      2.3636729     -105627.44      589.87644      53328.591      497.97437    
     22500  -105629.55      2.2029923     -105627.34      549.77709      53353.492      497.97437    
     22600  -105629.15      2.3412351     -105626.81      584.27686      62436.679      497.97437    
     22700  -105629.06      2.9127306     -105626.14      726.89886      58028.328      497.97437    
     22800  -105628.89      2.965157      -105625.92      739.98234      65237.584      497.97437    
     22900  -105628.38      2.5758191     -105625.81      642.81948      67223.33       497.97437    
     23000  -105629.29      3.6291352     -105625.66      905.68426      60691.994      497.97437    
     23100  -105628.12      2.3225111     -105625.8       579.60412      61864.938      497.97437    
     23200  -105628.83      3.0158511     -105625.81      752.63352      62528.184      497.97437    
     23300  -105629.11      3.1863312     -105625.92      795.17841      60146.575      497.97437    
     23400  -105629.04      2.7602233     -105626.28      688.83925      59289.854      497.97437    
     23500  -105628.97      2.3325171     -105626.64      582.10121      60066.473      497.97437    
     23600  -105629.18      2.3787443     -105626.8       593.63764      60556.484      497.97437    
     23700  -105629.28      2.5137857     -105626.77      627.33848      58276.722      497.97437    
     23800  -105629.65      3.1104167     -105626.54      776.23324      55945.014      497.97437    
     23900  -105628.84      2.682841      -105626.16      669.52778      63398.246      497.97437    
     24000  -105628.48      2.9902576     -105625.49      746.24643      68169.487      497.97437    
     24100  -105627.74      2.7136334     -105625.02      677.21231      70130.995      497.97437    
     24200  -105627.96      3.1740891     -105624.78      792.12328      72165.967      497.97437    
     24300  -105628.26      3.4858483     -105624.78      869.92568      71634.441      497.97437    
     24400  -105628.65      3.4749774     -105625.17      867.21275      67780.13       497.97437    
     24500  -105628.66      2.897916      -105625.76      723.20174      62200.349      497.97437    
     24600  -105628.83      2.7913492     -105626.04      696.607        60728.621      497.97437    
     24700  -105628.73      2.5578288     -105626.17      638.32982      67438.766      497.97437    
     24800  -105629.13      2.9495847     -105626.18      736.09614      63295.399      497.97437    
     24900  -105629.07      2.8262523     -105626.25      705.31739      62520.059      497.97437    
     25000  -105628.72      2.4018442     -105626.32      599.40244      67528.228      497.97437    
     25100  -105629.14      2.9094492     -105626.23      726.07995      66615.953      497.97437    
     25200  -105628.85      2.8172927     -105626.03      703.08144      68361.182      497.97437    
     25300  -105628.87      3.2379227     -105625.63      808.05356      65273.293      497.97437    
     25400  -105628.6       3.3146142     -105625.28      827.19262      74703.61       497.97437    
     25500  -105627.85      2.7088491     -105625.14      676.01834      75466.356      497.97437    
     25600  -105628.3       3.3210309     -105624.98      828.79397      72323.227      497.97437    
     25700  -105628.46      3.4544928     -105625.01      862.10063      69750.674      497.97437    
     25800  -105628.23      2.7658882     -105625.46      690.25297      71594.85       497.97437    
     25900  -105628.92      2.8954686     -105626.02      722.59096      61667.4        497.97437    
     26000  -105629         2.5979202     -105626.4       648.335        58800.667      497.97437    
     26100  -105629.58      3.0006834     -105626.58      748.84829      59261.532      497.97437    
     26200  -105629.33      2.5882466     -105626.74      645.92086      61761.738      497.97437    
     26300  -105628.87      2.1166772     -105626.76      528.23636      59377.251      497.97437    
     26400  -105629.33      2.8059515     -105626.53      700.25114      58833.129      497.97437    
     26500  -105628.96      2.7709174     -105626.19      691.50807      57115.006      497.97437    
     26600  -105628.69      2.8016064     -105625.89      699.16678      63235.699      497.97437    
     26700  -105629.14      3.5216019     -105625.62      878.84831      60294.483      497.97437    
     26800  -105628.25      2.5891054     -105625.66      646.1352       68537.642      497.97437    
     26900  -105628.31      2.6754049     -105625.64      667.67203      69613.239      497.97437    
     27000  -105629.08      3.4243203     -105625.65      854.57079      66741.209      497.97437    
     27100  -105628.49      2.6715104     -105625.82      666.70012      66202.199      497.97437    
     27200  -105629.29      3.3139055     -105625.97      827.01576      67055.561      497.97437    
     27300  -105628.57      2.2871546     -105626.28      570.78058      63798.032      497.97437    
     27400  -105628.82      2.4633495     -105626.36      614.75164      62211.051      497.97437    
     27500  -105629.63      3.3084341     -105626.32      825.65032      60020.985      497.97437    
     27600  -105628.95      2.4795875     -105626.47      618.804        65702.53       497.97437    
     27700  -105629.35      2.7034713     -105626.65      674.67626      60334.011      497.97437    
     27800  -105629.1       2.2405882     -105626.86      559.15952      59914.638      497.97437    
     27900  -105629.33      2.3810907     -105626.95      594.22322      61494.526      497.97437    
     28000  -105629.52      2.6493475     -105626.88      661.16918      54256.941      497.97437    
     28100  -105629.22      2.5870066     -105626.64      645.61142      55740.402      497.97437    
     28200  -105629.17      2.9567059     -105626.21      737.8733       60953.641      497.97437    
     28300  -105628.54      2.7162142     -105625.83      677.85637      61635.476      497.97437    
     28400  -105628.22      2.74351       -105625.48      684.66829      64723.566      497.97437    
     28500  -105628.43      3.2153191     -105625.22      802.41262      65184.062      497.97437    
     28600  -105628.43      3.2438322     -105625.19      809.52833      60392.055      497.97437    
     28700  -105628.67      3.298379      -105625.38      823.14099      62173.108      497.97437    
     28800  -105628.77      3.0412279     -105625.73      758.96655      62607.749      497.97437    
     28900  -105628.85      2.8388203     -105626.01      708.45385      67650.014      497.97437    
     29000  -105628.49      2.378739      -105626.11      593.63632      59320.187      497.97437    
     29100  -105628.99      2.9460843     -105626.04      735.22257      59023          497.97437    
     29200  -105628.92      2.8991395     -105626.02      723.50708      56099.629      497.97437    
     29300  -105629         2.9303103     -105626.07      731.28603      60244.769      497.97437    
     29400  -105629.15      2.9309176     -105626.22      731.43758      58806.392      497.97437    
     29500  -105628.78      2.3216448     -105626.45      579.38792      61928.903      497.97437    
     29600  -105629.03      2.4042784     -105626.62      600.0099       62328.848      497.97437    
     29700  -105629.09      2.3691136     -105626.72      591.2342       57919.262      497.97437    
     29800  -105629.64      2.9621681     -105626.68      739.23643      55444.235      497.97437    
     29900  -105629.52      2.8881545     -105626.64      720.76567      56882.119      497.97437    
     30000  -105628.88      2.259651      -105626.62      563.9168       62897.554      497.97437    
     30100  -105629         2.644177      -105626.36      659.87882      60151.98       497.97437    
     30200  -105628.56      2.6163138     -105625.95      652.9253       64940.97       497.97437    
     30300  -105629.08      3.5882272     -105625.5       895.47527      62314.902      497.97437    
     30400  -105628.28      2.8410302     -105625.44      709.00535      64190.706      497.97437    
     30500  -105628.18      2.718911      -105625.46      678.52939      62636.626      497.97437    
     30600  -105628.55      3.1005835     -105625.45      773.7793       62217.333      497.97437    
     30700  -105628.84      3.1879268     -105625.65      795.5766       64818.81       497.97437    
     30800  -105628.88      2.6243699     -105626.26      654.93577      59231.484      497.97437    
     30900  -105629.15      2.4128822     -105626.74      602.15706      59682.472      497.97437    
     31000  -105629.67      2.7576693     -105626.91      688.20189      55563.835      497.97437    
     31100  -105629.16      2.2130644     -105626.94      552.29069      56048.648      497.97437    
     31200  -105629.59      2.8058102     -105626.78      700.21589      57187.294      497.97437    
     31300  -105628.8       2.2196613     -105626.58      553.937        58783.384      497.97437    
     31400  -105629.14      2.9130988     -105626.23      726.99075      60548.14       497.97437    
     31500  -105629         3.0470308     -105625.95      760.41471      60359.036      497.97437    
     31600  -105628.3       2.4207136     -105625.88      604.11147      70098.607      497.97437    
     31700  -105628.67      2.920377      -105625.75      728.80709      64492.149      497.97437    
     31800  -105628.85      3.1175992     -105625.73      778.02571      64953.842      497.97437    
     31900  -105628.44      2.623686      -105625.82      654.7651       61575.108      497.97437    
     32000  -105628.72      2.8781278     -105625.84      718.2634       58936.94       497.97437    
     32100  -105628.8       2.9066555     -105625.9       725.38276      63704.631      497.97437    
     32200  -105628.99      2.9341951     -105626.06      732.25552      56512.4        497.97437    
     32300  -105629         2.4537744     -105626.54      612.36209      60569.187      497.97437    
     32400  -105629.15      2.1467711     -105627.01      535.74659      64468.591      497.97437    
     32500  -105629.57      2.4147782     -105627.15      602.63023      53767.315      497.97437    
     32600  -105629.84      2.7102851     -105627.13      676.37671      53790.472      497.97437    
     32700  -105629.26      2.2226001     -105627.04      554.67041      55957.06       497.97437    
     32800  -105629.01      2.3365953     -105626.68      583.11895      62059.572      497.97437    
     32900  -105628.85      2.7380054     -105626.11      683.29457      62023.292      497.97437    
     33000  -105629.16      3.3000804     -105625.86      823.56557      58454.286      497.97437    
     33100  -105628.61      2.7045152     -105625.9       674.93677      61493.42       497.97437    
     33200  -105628.45      2.5355769     -105625.91      632.77666      60480.01       497.97437    
     33300  -105629.13      3.2894187     -105625.84      820.90485      56337.489      497.97437    
     33400  -105628.57      2.6322151     -105625.93      656.89363      59373.243      497.97437    
     33500  -105629.3       3.2198847     -105626.08      803.55201      59455.276      497.97437    
     33600  -105628.69      2.2839498     -105626.4       569.9808       62079.865      497.97437    
     33700  -105629.29      2.6536769     -105626.63      662.24961      57810.315      497.97437    
     33800  -105629.28      2.4390541     -105626.84      608.68852      58241.957      497.97437    
     33900  -105629.38      2.3898568     -105626.99      596.41087      59834.247      497.97437    
     34000  -105629.33      2.3170816     -105627.01      578.24915      59166.379      497.97437    
     34100  -105629.53      2.7666961     -105626.77      690.45461      54769.49       497.97437    
     34200  -105628.91      2.628204      -105626.29      655.89261      61363.598      497.97437    
     34300  -105628.57      2.7661503     -105625.8       690.31839      65587.587      497.97437    
     34400  -105628.52      3.061019      -105625.46      763.9056       57507.249      497.97437    
     34500  -105628.26      2.9278499     -105625.34      730.67202      61184.495      497.97437    
     34600  -105628.65      3.3174009     -105625.33      827.88806      64657.658      497.97437    
     34700  -105628.7       3.1103487     -105625.59      776.21627      58910.155      497.97437    
     34800  -105628.86      2.8117267     -105626.05      701.69241      56732.886      497.97437    
     34900  -105628.66      2.2585756     -105626.4       563.64844      61774.151      497.97437    
     35000  -105629.09      2.6347893     -105626.46      657.53604      64643.243      497.97437    
     35100  -105629.23      2.7915098     -105626.44      696.64709      59231.778      497.97437    
     35200  -105629.43      2.9964369     -105626.44      747.78853      55730.299      497.97437    
     35300  -105628.96      2.4825972     -105626.48      619.55508      58803.883      497.97437    
     35400  -105628.95      2.5438797     -105626.41      634.84871      60356.954      497.97437    
     35500  -105629.07      2.8279985     -105626.25      705.75317      66775.123      497.97437    
     35600  -105628.9       2.7952772     -105626.1       697.58728      63396.839      497.97437    
     35700  -105628.99      3.0109825     -105625.98      751.41853      61525.484      497.97437    
     35800  -105628.46      2.5426805     -105625.92      634.54943      63245.131      497.97437    
     35900  -105628.89      3.2804158     -105625.61      818.65811      64087.115      497.97437    
     36000  -105628.46      3.4693124     -105624.99      865.79899      63468.218      497.97437    
     36100  -105627.92      3.4343204     -105624.49      857.06642      68124.107      497.97437    
     36200  -105627.57      3.2307345     -105624.34      806.25967      68937.541      497.97437    
     36300  -105627.92      3.4274223     -105624.49      855.34493      73144.257      497.97437    
     36400  -105628.19      3.1328682     -105625.06      781.83624      73075.898      497.97437    
     36500  -105628.53      2.8595557     -105625.67      713.62858      64995.878      497.97437    
     36600  -105629.01      3.0486891     -105625.96      760.82855      58789.827      497.97437    
     36700  -105629.25      3.0318854     -105626.22      756.63504      59779.222      497.97437    
     36800  -105628.79      2.3688206     -105626.42      591.16109      62996.32       497.97437    
     36900  -105629.04      2.5950178     -105626.44      647.6107       60312.711      497.97437    
     37000  -105628.9       2.5519812     -105626.35      636.8705       56034.287      497.97437    
     37100  -105629.52      3.4160684     -105626.1       852.51146      56777.559      497.97437    
     37200  -105628.65      2.6697574     -105625.98      666.26265      61693.037      497.97437    
     37300  -105628.21      2.4134871     -105625.8       602.30802      61950.345      497.97437    
     37400  -105628.51      3.3281651     -105625.18      830.57438      58226.97       497.97437    
     37500  -105628.29      3.5350382     -105624.75      882.20147      67670.147      497.97437    
     37600  -105627.9       3.1256044     -105624.77      780.02348      66032.52       497.97437    
     37700  -105628.49      3.4285017     -105625.06      855.6143       64582.747      497.97437    
     37800  -105628.01      2.5082395     -105625.5       625.95437      67035.81       497.97437    
     37900  -105628.98      3.2472735     -105625.74      810.38712      62513.787      497.97437    
     38000  -105629.25      3.1803801     -105626.07      793.69328      58123.006      497.97437    
     38100  -105628.65      2.3819745     -105626.27      594.44376      61768.747      497.97437    
     38200  -105629.03      2.7725936     -105626.26      691.92637      59603.58       497.97437    
     38300  -105628.83      2.6251056     -105626.21      655.11937      63032.467      497.97437    
     38400  -105628.9       2.8165041     -105626.08      702.88465      64237.574      497.97437    
     38500  -105628.9       2.9729029     -105625.93      741.91541      63265.422      497.97437    
     38600  -105628.53      2.7480692     -105625.79      685.80609      66050.893      497.97437    
     38700  -105628.83      3.329467      -105625.5       830.89927      65184.72       497.97437    
     38800  -105628.45      3.3007264     -105625.15      823.7268       62775.946      497.97437    
     38900  -105628.07      3.0623668     -105625         764.24195      68970.421      497.97437    
     39000  -105628.04      3.0956453     -105624.94      772.54692      73097.577      497.97437    
     39100  -105628.31      3.236518      -105625.08      807.703        68835.028      497.97437    
     39200  -105628.4       2.9037894     -105625.49      724.6675       68666.229      497.97437    
     39300  -105629.03      2.9799533     -105626.05      743.67491      61166.92       497.97437    
     39400  -105628.71      2.3049325     -105626.4       575.21722      59395.291      497.97437    
     39500  -105629.91      3.3803944     -105626.53      843.60869      53849.95       497.97437    
     39600  -105628.94      2.182312      -105626.76      544.61615      60926.655      497.97437    
     39700  -105628.82      2.0944164     -105626.73      522.68098      64521.157      497.97437    
     39800  -105629.53      3.1283605     -105626.4       780.7113       57783.28       497.97437    
     39900  -105628.95      2.7878477     -105626.16      695.73318      60155.679      497.97437    
     40000  -105628.77      2.774004      -105626         692.27835      61810.393      497.97437    
     40100  -105628.6       2.7456959     -105625.85      685.21379      65985.098      497.97437    
     40200  -105628.74      3.0190512     -105625.72      753.43213      60355.012      497.97437    
     40300  -105629.37      3.6114762     -105625.76      901.27728      62080.369      497.97437    
     40400  -105628.45      2.5098199     -105625.94      626.34878      66086.217      497.97437    
     40500  -105628.13      2.2316352     -105625.9       556.92519      67374.984      497.97437    
     40600  -105629.16      3.4829911     -105625.67      869.21263      60448.57       497.97437    
     40700  -105628.86      3.1595843     -105625.71      788.50348      62397.718      497.97437    
     40800  -105628.83      2.8715052     -105625.96      716.61068      62994.304      497.97437    
     40900  -105629.02      2.7096243     -105626.31      676.21181      62622.991      497.97437    
     41000  -105628.52      1.9944409     -105626.52      497.73117      61025.406      497.97437    
     41100  -105629.91      3.4028568     -105626.5       849.21439      55879.804      497.97437    
     41200  -105629.23      2.5342738     -105626.7       632.45147      58343.073      497.97437    
     41300  -105629.13      2.1985395     -105626.93      548.66586      57427.053      497.97437    
     41400  -105629.39      2.2898339     -105627.1       571.44923      58396.226      497.97437    
     41500  -105629.35      2.2071121     -105627.14      550.80523      57480.814      497.97437    
     41600  -105629.95      3.0390359     -105626.91      758.41952      54520.143      497.97437    
     41700  -105629         2.4096892     -105626.59      601.36023      59441.066      497.97437    
     41800  -105629.09      2.9485657     -105626.15      735.84183      61419.601      497.97437    
     41900  -105628.15      2.384745      -105625.77      595.13517      67089.119      497.97437    
     42000  -105628.76      3.3182626     -105625.44      828.10312      66140.034      497.97437    
     42100  -105628.57      3.2006127     -105625.37      798.7425       66118.367      497.97437    
     42200  -105628.89      3.3370567     -105625.55      832.79336      66121.615      497.97437    
     42300  -105627.99      2.1415603     -105625.85      534.44619      64012.054      497.97437    
     42400  -105629.02      3.1227207     -105625.9       779.30384      64864.532      497.97437    
     42500  -105629.13      3.0604738     -105626.07      763.76954      59417.597      497.97437    
     42600  -105629.21      2.785574      -105626.42      695.16576      61239.025      497.97437    
     42700  -105628.95      2.1538611     -105626.8       537.51597      60960.672      497.97437    
     42800  -105629.33      2.2548065     -105627.08      562.70782      54920.702      497.97437    
     42900  -105629.93      2.4049488     -105627.52      600.17722      53567.583      497.97437    
     43000  -105630.36      2.2225326     -105628.13      554.65357      48115.648      497.97437    
     43100  -105629.64      1.3712285     -105628.27      342.20274      50494.81       497.97437    
     43200  -105630.18      2.1622971     -105628.02      539.62123      46109.912      497.97437    
     43300  -105629.85      2.2384335     -105627.61      558.62179      53576.846      497.97437    
     43400  -105629.62      2.3586254     -105627.27      588.61678      55756.621      497.97437    
     43500  -105629.31      2.3906359     -105626.92      596.6053       56413.444      497.97437    
     43600  -105628.73      2.1541416     -105626.58      537.58595      61042.715      497.97437    
     43700  -105629.34      3.2080605     -105626.14      800.60118      63030.247      497.97437    
     43800  -105628.75      2.8383492     -105625.91      708.33629      62997.14       497.97437    
     43900  -105628.9       3.0952601     -105625.81      772.45078      64583.637      497.97437    
     44000  -105628.31      2.5174065     -105625.79      628.24206      62676.605      497.97437    
     44100  -105628.72      3.0366925     -105625.68      757.83469      71173.562      497.97437    
     44200  -105628.81      3.215224      -105625.6       802.38889      63852.856      497.97437    
     44300  -105628.82      3.0547925     -105625.76      762.35171      60389.384      497.97437    
     44400  -105628.82      2.6030207     -105626.21      649.60789      61298.101      497.97437    
     44500  -105628.79      2.2286616     -105626.56      556.1831       60647.787      497.97437    
     44600  -105629.67      2.9476815     -105626.72      735.62117      56313.397      497.97437    
     44700  -105629.59      2.672569      -105626.92      666.96431      54637.274      497.97437    
     44800  -105629.2       2.1374639     -105627.06      533.42388      57456.353      497.97437    
     44900  -105629.17      2.2164009     -105626.95      553.12335      58895.504      497.97437    
     45000  -105629.22      2.9049803     -105626.31      724.9647       57183.558      497.97437    
     45100  -105629.02      3.2935541     -105625.72      821.93688      60698.868      497.97437    
     45200  -105628.38      2.752395      -105625.63      686.88563      65462.334      497.97437    
     45300  -105628.5       2.921917      -105625.58      729.19141      65686.648      497.97437    
     45400  -105628.4       2.820329      -105625.58      703.83919      64165.733      497.97437    
     45500  -105628.7       3.1095886     -105625.6       776.02659      64400.793      497.97437    
     45600  -105629.34      3.4214474     -105625.92      853.85384      62367.939      497.97437    
     45700  -105628.47      1.9970699     -105626.47      498.38726      62442.282      497.97437    
     45800  -105629.19      2.5581131     -105626.64      638.40078      62208.601      497.97437    
     45900  -105629.22      2.5892704     -105626.63      646.17636      59205.937      497.97437    
     46000  -105629.45      2.9044814     -105626.55      724.8402       55863.704      497.97437    
     46100  -105629.2       2.7000482     -105626.5       673.822        59027.131      497.97437    
     46200  -105628.69      2.3149933     -105626.37      577.728        61617.679      497.97437    
     46300  -105628.77      2.9710874     -105625.8       741.46232      62309.831      497.97437    
     46400  -105628.3       3.2878806     -105625.01      820.52101      65503.734      497.97437    
     46500  -105628.22      3.333846      -105624.89      831.99209      68070.611      497.97437    
     46600  -105628.23      3.1428274     -105625.09      784.32165      64716.839      497.97437    
     46700  -105628.25      2.8868207     -105625.36      720.43281      65561.62       497.97437    
     46800  -105628.86      3.1222213     -105625.73      779.17919      63651.71       497.97437    
     46900  -105628.51      2.4377499     -105626.07      608.36302      59830.858      497.97437    
     47000  -105629.46      3.1997694     -105626.26      798.53204      56442.108      497.97437    
     47100  -105629.09      2.5676094     -105626.52      640.77067      59676.027      497.97437    
     47200  -105629.18      2.5398269     -105626.64      633.8373       59882.576      497.97437    
     47300  -105628.92      2.3033706     -105626.61      574.82743      61981.895      497.97437    
     47400  -105629.32      2.9503441     -105626.37      736.28566      58347.357      497.97437    
     47500  -105628.86      2.9090835     -105625.95      725.98869      62288.599      497.97437    
     47600  -105628.55      3.4132425     -105625.14      851.80622      66379.295      497.97437    
     47700  -105627.5       3.0441936     -105624.46      759.70667      73487.526      497.97437    
     47800  -105627.93      3.5996524     -105624.33      898.32655      74880.327      497.97437    
     47900  -105627.49      2.8950081     -105624.59      722.47605      69195.167      497.97437    
     48000  -105628         3.1987752     -105624.8       798.28392      69058.182      497.97437    
     48100  -105629.43      4.0655648     -105625.36      1014.5993      61465.39       497.97437    
     48200  -105628.39      2.320144      -105626.07      579.0134       63436.183      497.97437    
     48300  -105628.82      2.6509872     -105626.17      661.57837      62087.13       497.97437    
     48400  -105629.11      2.9078365     -105626.2       725.67749      58819.989      497.97437    
     48500  -105628.92      2.680608      -105626.24      668.97052      58350.678      497.97437    
     48600  -105629.17      2.9104065     -105626.26      726.31886      57627.449      497.97437    
     48700  -105628.65      2.3569057     -105626.29      588.18762      58059.75       497.97437    
     48800  -105629.28      3.1283371     -105626.16      780.70544      58989.681      497.97437    
     48900  -105628.69      2.6664098     -105626.03      665.42722      62234.392      497.97437    
     49000  -105628.73      2.9498269     -105625.78      736.15658      61935.315      497.97437    
     49100  -105628.5       3.0722283     -105625.42      766.70299      65416.822      497.97437    
     49200  -105628.25      3.1166415     -105625.14      777.78671      67218.679      497.97437    
     49300  -105627.99      3.0555063     -105624.94      762.52985      74442.476      497.97437    
     49400  -105628.37      3.527822      -105624.84      880.40061      69053.44       497.97437    
     49500  -105628.48      3.2513655     -105625.23      811.40833      60453.596      497.97437    
     49600  -105628.54      2.6430231     -105625.89      659.59086      56632.402      497.97437    
     49700  -105629.21      2.920339      -105626.28      728.79761      57924.294      497.97437    
     49800  -105629.09      2.5975476     -105626.49      648.24202      58962.136      497.97437    
     49900  -105629.23      2.685504      -105626.55      670.19237      54840.477      497.97437    
     50000  -105629.18      2.6214726     -105626.55      654.21274      61527.733      497.97437    
     50100  -105628.87      2.4117471     -105626.46      601.87379      64807.867      497.97437    
     50200  -105629.45      3.354301      -105626.09      837.09684      61587.479      497.97437    
     50300  -105628.18      2.4428752     -105625.74      609.6421       64136.114      497.97437    
     50400  -105628.48      3.2932039     -105625.18      821.84948      63455.507      497.97437    
     50500  -105628.78      3.9659354     -105624.81      989.73585      63952.65       497.97437    
     50600  -105627.71      2.6825978     -105625.02      669.46708      71225.163      497.97437    
     50700  -105628.13      3.0293284     -105625.1       755.99692      72064.053      497.97437    
     50800  -105628.52      3.2536344     -105625.26      811.97455      66310.227      497.97437    
     50900  -105628.9       3.3736947     -105625.52      841.93671      59320.933      497.97437    
     51000  -105628.95      2.9909084     -105625.96      746.40884      66832.641      497.97437    
     51100  -105628.26      2.0921408     -105626.17      522.11308      64676.399      497.97437    
     51200  -105629.1       2.9953497     -105626.1       747.51721      64334.553      497.97437    
     51300  -105629.14      3.0599543     -105626.08      763.63989      59681.587      497.97437    
     51400  -105628.91      2.7160621     -105626.19      677.81842      60282.472      497.97437    
     51500  -105629.07      2.7419941     -105626.32      684.28999      58348.84       497.97437    
     51600  -105628.83      2.3181121     -105626.51      578.5063       57004.743      497.97437    
     51700  -105629.2       2.5427503     -105626.65      634.56684      60233.12       497.97437    
     51800  -105629.85      2.9873798     -105626.86      745.52827      55720.982      497.97437    
     51900  -105629.06      1.9427592     -105627.11      484.83352      53253.249      497.97437    
     52000  -105629.7       2.5882519     -105627.11      645.9222       54277.922      497.97437    
     52100  -105628.98      2.050678      -105626.93      511.76566      56965.027      497.97437    
     52200  -105629.33      2.8930084     -105626.44      721.97699      63133.614      497.97437    
     52300  -105628.74      2.7250597     -105626.02      680.06385      61917.712      497.97437    
     52400  -105628.95      3.1514525     -105625.8       786.47413      61230.777      497.97437    
     52500  -105628.05      2.3192716     -105625.73      578.79567      70413.583      497.97437    
     52600  -105628.53      3.0000065     -105625.53      748.67937      68755.047      497.97437    
     52700  -105628.83      3.4321396     -105625.4       856.52217      62878.354      497.97437    
     52800  -105628.67      3.0546051     -105625.61      762.30496      60028.359      497.97437    
     52900  -105628.73      2.6420768     -105626.09      659.35469      60785.395      497.97437    
     53000  -105628.96      2.3937402     -105626.57      597.38         63978.545      497.97437    
     53100  -105629.16      2.3823113     -105626.78      594.52781      56315.146      497.97437    
     53200  -105629.83      3.0267595     -105626.8       755.35582      56635.297      497.97437    
     53300  -105628.93      2.1140554     -105626.81      527.58207      58069.883      497.97437    
     53400  -105629.4       2.7380256     -105626.66      683.29961      57577.784      497.97437    
     53500  -105629.02      2.5366171     -105626.48      633.03626      61239.682      497.97437    
     53600  -105628.92      2.6670318     -105626.26      665.58244      60337.497      497.97437    
     53700  -105628.88      2.9018208     -105625.98      724.17622      58591.453      497.97437    
     53800  -105628.91      3.1183524     -105625.79      778.21368      61273.335      497.97437    
     53900  -105628.79      3.0211479     -105625.76      753.95539      63853.035      497.97437    
     54000  -105628.17      2.3499143     -105625.82      586.44284      65631.605      497.97437    
     54100  -105628.79      3.0893115     -105625.7       770.96627      63236.498      497.97437    
     54200  -105628.94      3.5450947     -105625.4       884.71117      63213.526      497.97437    
     54300  -105628.22      2.8750125     -105625.35      717.48595      66735.65       497.97437    
     54400  -105628.51      3.1178875     -105625.39      778.09767      68556.384      497.97437    
     54500  -105628.5       2.8918322     -105625.6       721.68346      61652.304      497.97437    
     54600  -105629.02      3.0771129     -105625.94      767.92198      58866.443      497.97437    
     54700  -105628.9       2.5315886     -105626.37      631.78134      63696.808      497.97437    
     54800  -105629.1       2.5000393     -105626.6       623.90794      63357.748      497.97437    
     54900  -105629.09      2.4373259     -105626.65      608.25723      57520.434      497.97437    
     55000  -105629.66      3.0835642     -105626.57      769.53195      53220.371      497.97437    
     55100  -105628.95      2.4206453     -105626.53      604.09442      56876.709      497.97437    
     55200  -105629.03      2.7928328     -105626.24      696.97726      64880.184      497.97437    
     55300  -105628.61      3.0128181     -105625.6       751.87661      62646.319      497.97437    
     55400  -105628.47      3.3540379     -105625.12      837.03118      62406.762      497.97437    
     55500  -105627.75      2.7334475     -105625.01      682.1571       68079.084      497.97437    
     55600  -105628.29      3.3310361     -105624.96      831.29087      68416.601      497.97437    
     55700  -105628.78      3.5410776     -105625.24      883.70866      63618.701      497.97437    
     55800  -105628.23      2.4365537     -105625.79      608.06451      60531.434      497.97437    
     55900  -105628.9       2.8873925     -105626.02      720.5755       62160.259      497.97437    
     56000  -105629.3       3.1281663     -105626.18      780.66282      57484.362      497.97437    
     56100  -105628.95      2.6048337     -105626.34      650.06033      59362.628      497.97437    
     56200  -105628.96      2.5847497     -105626.38      645.0482       59392.652      497.97437    
     56300  -105628.63      2.3312161     -105626.3       581.77653      65464.053      497.97437    
     56400  -105629.02      2.9763258     -105626.04      742.76963      61282.507      497.97437    
     56500  -105629.3       3.5126819     -105625.78      876.62225      54323.962      497.97437    
     56600  -105628.02      2.1958218     -105625.82      547.98764      63990.603      497.97437    
     56700  -105628.43      2.8234416     -105625.61      704.61596      65776.951      497.97437    
     56800  -105629.04      4.2509178     -105624.79      1060.8559      67817.043      497.97437    
     56900  -105627.69      3.0498899     -105624.64      761.12823      68638.515      497.97437    
     57000  -105627.97      3.192121      -105624.78      796.62332      68255.305      497.97437    
     57100  -105627.39      2.304685      -105625.09      575.15546      68854.898      497.97437    
     57200  -105628.82      3.4285819     -105625.39      855.63432      64866.684      497.97437    
     57300  -105629.44      3.1963517     -105626.24      797.67913      59382.932      497.97437    
     57400  -105628.99      2.3132284     -105626.68      577.28753      59683.826      497.97437    
     57500  -105629.27      2.5442556     -105626.72      634.94252      56567.574      497.97437    
     57600  -105629         2.3766718     -105626.62      593.12043      60399.114      497.97437    
     57700  -105629.31      2.9876838     -105626.32      745.60412      58540.337      497.97437    
     57800  -105628.83      2.7821564     -105626.05      694.31287      64394.516      497.97437    
     57900  -105628.79      2.9689316     -105625.82      740.92434      65625.154      497.97437    
     58000  -105628.31      2.6934514     -105625.62      672.1757       65958.862      497.97437    
     58100  -105628.04      2.6919356     -105625.34      671.79743      64451.969      497.97437    
     58200  -105629.04      4.219156      -105624.82      1052.9294      67705.775      497.97437    
     58300  -105628.28      3.3308648     -105624.95      831.24812      63501.638      497.97437    
     58400  -105628.31      2.7362503     -105625.58      682.85657      65086.732      497.97437    
     58500  -105628.2       2.1541574     -105626.04      537.58989      60319.869      497.97437    
     58600  -105629.27      3.1625638     -105626.11      789.24705      58764.014      497.97437    
     58700  -105629.7       3.3955748     -105626.3       847.39708      53262.77       497.97437    
     58800  -105629.21      2.5855131     -105626.63      645.23871      58021.215      497.97437    
     58900  -105628.7       1.9758388     -105626.72      493.08885      59041.569      497.97437    
     59000  -105629.09      2.5609703     -105626.53      639.11381      61589.848      497.97437    
     59100  -105629.05      2.8916719     -105626.16      721.64345      60705.485      497.97437    
     59200  -105629.17      3.2915693     -105625.88      821.44157      57156.721      497.97437    
     59300  -105628.51      2.674473      -105625.83      667.43947      56022.989      497.97437    
     59400  -105628.9       3.102298      -105625.8       774.20717      60154.944      497.97437    
     59500  -105628.31      2.4766812     -105625.84      618.07869      63435.797      497.97437    
     59600  -105629.17      3.3601404     -105625.81      838.55411      59074.423      497.97437    
     59700  -105628.63      2.6458095     -105625.98      660.28623      59820.035      497.97437    
     59800  -105629.06      2.787678      -105626.27      695.69083      60125.385      497.97437    
     59900  -105628.99      2.4498871     -105626.54      611.39199      57876.11       497.97437    
     60000  -105629.46      2.7514835     -105626.71      686.65814      54830.83       497.97437    
     60100  -105629         2.2006012     -105626.8       549.18039      57765.121      497.97437    
     60200  -105629.7       3.0179661     -105626.68      753.16134      52183.347      497.97437    
     60300  -105628.94      2.4052407     -105626.54      600.25005      59816.385      497.97437    
     60400  -105629.23      3.030665      -105626.2       756.33048      57736.874      497.97437    
     60500  -105628.39      2.6049364     -105625.79      650.08596      58476.966      497.97437    
     60600  -105628.26      2.8734773     -105625.39      717.10283      63898.116      497.97437    
     60700  -105628.98      3.8641929     -105625.12      964.34508      64978.032      497.97437    
     60800  -105628.02      2.6826152     -105625.34      669.47144      60091.23       497.97437    
     60900  -105627.86      2.4436444     -105625.41      609.83407      59530.845      497.97437    
     61000  -105629.15      3.7360915     -105625.42      932.37618      62169.751      497.97437    
     61100  -105628.99      3.2057228     -105625.78      800.01776      65143.443      497.97437    
     61200  -105628.83      2.7117383     -105626.12      676.73937      63339.393      497.97437    
     61300  -105628.23      2.0289269     -105626.2       506.33747      60771.112      497.97437    
     61400  -105628.94      2.9182714     -105626.03      728.28161      58669.749      497.97437    
     61500  -105629.42      3.4870763     -105625.93      870.23214      59360.045      497.97437    
     61600  -105629.06      2.8927087     -105626.17      721.90221      66333.889      497.97437    
     61700  -105628.28      1.9299716     -105626.35      481.64225      64277.404      497.97437    
     61800  -105629.04      2.8117415     -105626.23      701.6961       57381.117      497.97437    
     61900  -105629.2       3.2705198     -105625.93      816.18847      60030.114      497.97437    
     62000  -105629.01      3.3631023     -105625.65      839.29327      62794.258      497.97437    
     62100  -105628.36      3.037832      -105625.32      758.11906      61719.712      497.97437    
     62200  -105627.59      2.6052911     -105624.99      650.17448      69201.871      497.97437    
     62300  -105628.34      3.8230154     -105624.52      954.06884      70173.113      497.97437    
     62400  -105627.67      3.1743336     -105624.49      792.18432      67877.515      497.97437    
     62500  -105628.53      3.6923855     -105624.84      921.46895      68325.08       497.97437    
     62600  -105628.29      2.7358464     -105625.55      682.75576      66433.478      497.97437    
     62700  -105628.47      2.6283805     -105625.84      655.93665      62850.904      497.97437    
     62800  -105629.27      3.2875613     -105625.98      820.44132      58534.989      497.97437    
     62900  -105629.28      2.9808619     -105626.29      743.90165      58341.764      497.97437    
     63000  -105628.72      2.18924       -105626.53      546.34509      62634.976      497.97437    
     63100  -105629.16      2.637476      -105626.53      658.20653      57386.982      497.97437    
     63200  -105629.19      2.7775938     -105626.41      693.17422      58528.455      497.97437    
     63300  -105629.02      2.8177923     -105626.2       703.20613      58284.512      497.97437    
     63400  -105629.11      3.3386669     -105625.77      833.1952       56370.287      497.97437    
     63500  -105628.24      3.0353669     -105625.21      757.50388      63660.845      497.97437    
     63600  -105627.36      2.5885433     -105624.77      645.99491      70364.821      497.97437    
     63700  -105628.6       4.2662844     -105624.33      1064.6907      66419.844      497.97437    
     63800  -105628.41      3.7052191     -105624.71      924.6717       67865.188      497.97437    
     63900  -105627.89      2.7733164     -105625.11      692.10676      64831.903      497.97437    
     64000  -105628.58      3.2500179     -105625.33      811.07202      65831.036      497.97437    
     64100  -105628.48      2.8670088     -105625.61      715.48856      64939.876      497.97437    
     64200  -105629.24      3.2959999     -105625.94      822.54725      60028.81       497.97437    
     64300  -105628.83      2.4699921     -105626.36      616.40937      57861.501      497.97437    
     64400  -105629.03      2.5214719     -105626.5       629.25663      54998.186      497.97437    
     64500  -105629.37      2.8331116     -105626.53      707.02921      60512.214      497.97437    
     64600  -105629.12      2.576279      -105626.55      642.93426      61775.615      497.97437    
     64700  -105628.97      2.5385084     -105626.43      633.50825      63106.262      497.97437    
     64800  -105628.66      2.6431658     -105626.02      659.62648      58600.297      497.97437    
     64900  -105629         3.7798135     -105625.22      943.28741      61251.178      497.97437    
     65000  -105628.78      3.6722249     -105625.11      916.43769      60879.163      497.97437    
     65100  -105627.68      2.3161607     -105625.36      578.01931      66918.334      497.97437    
     65200  -105628.12      2.7555074     -105625.37      687.66234      65429.054      497.97437    
     65300  -105628.95      3.5818217     -105625.37      893.87672      61291.293      497.97437    
     65400  -105628.91      3.1257931     -105625.79      780.07057      61059.304      497.97437    
     65500  -105629.16      2.8230368     -105626.34      704.51494      56773.524      497.97437    
     65600  -105628.65      2.0695243     -105626.58      516.46893      57271.763      497.97437    
     65700  -105629.47      2.9540342     -105626.51      737.20655      56244.671      497.97437    
     65800  -105629.32      2.8231879     -105626.5       704.55264      59660.891      497.97437    
     65900  -105629.08      2.5894276     -105626.49      646.21561      61410.44       497.97437    
     66000  -105628.73      2.3522939     -105626.38      587.03668      61496.729      497.97437    
     66100  -105628.8       2.7269107     -105626.08      680.52578      62170.637      497.97437    
     66200  -105629.4       3.8270072     -105625.58      955.06505      58532.585      497.97437    
     66300  -105628.16      2.6267508     -105625.54      655.52996      60973.13       497.97437    
     66400  -105627.94      2.4503886     -105625.49      611.51714      60753.514      497.97437    
     66500  -105629.07      3.8982522     -105625.17      972.84489      62953.732      497.97437    
     66600  -105628.43      3.4801371     -105624.95      868.5004       64888.066      497.97437    
     66700  -105627.8       2.6883475     -105625.11      670.90198      65709.845      497.97437    
     66800  -105628.33      2.9809929     -105625.35      743.93435      65055.966      497.97437    
     66900  -105629.06      3.2988497     -105625.76      823.25845      59693.879      497.97437    
     67000  -105629.05      2.7124818     -105626.34      676.92491      57958.214      497.97437    
     67100  -105629.14      2.5137763     -105626.63      627.33613      59655.151      497.97437    
     67200  -105629.22      2.4851012     -105626.74      620.18         56920.927      497.97437    
     67300  -105629.6       2.8906164     -105626.71      721.38004      54543.725      497.97437    
     67400  -105629.2       2.5232601     -105626.67      629.70289      61951.795      497.97437    
     67500  -105628.6       2.0873035     -105626.51      520.9059       61815.201      497.97437    
     67600  -105629.25      3.3727349     -105625.88      841.69718      55726.006      497.97437    
     67700  -105628.78      3.2653267     -105625.52      814.89248      63809.044      497.97437    
     67800  -105628.29      2.7846834     -105625.51      694.94349      63433.101      497.97437    
     67900  -105628.34      2.816565      -105625.52      702.89984      55540.603      497.97437    
     68000  -105628.46      2.9221097     -105625.54      729.2395       54314.037      497.97437    
     68100  -105629.13      3.4292177     -105625.7       855.79298      62279.521      497.97437    
     68200  -105628.82      2.5576664     -105626.27      638.28931      65159.819      497.97437    
     68300  -105628.79      2.1231421     -105626.67      529.84975      58663.439      497.97437    
     68400  -105629.4       2.6736749     -105626.73      667.24029      59481.167      497.97437    
     68500  -105629.09      2.3900867     -105626.7       596.46823      62642.985      497.97437    
     68600  -105629.51      2.9344147     -105626.58      732.31032      56579.034      497.97437    
     68700  -105629.43      2.9063943     -105626.53      725.31757      57852.787      497.97437    
     68800  -105628.38      1.8860961     -105626.49      470.69272      59085.891      497.97437    
     68900  -105629.27      3.1209674     -105626.15      778.86629      60491.674      497.97437    
     69000  -105629.5       3.6444967     -105625.85      909.51784      56818.057      497.97437    
     69100  -105628.36      2.4015321     -105625.96      599.32454      63099.169      497.97437    
     69200  -105628.55      2.626208      -105625.93      655.3945       63541.24       497.97437    
     69300  -105628.67      2.8818518     -105625.79      719.19277      59440.415      497.97437    
     69400  -105628.94      3.2594296     -105625.68      813.42079      57153.837      497.97437    
     69500  -105629.03      3.2015844     -105625.83      798.985        62058.344      497.97437    
     69600  -105628.85      2.3535157     -105626.5       587.3416       61999.793      497.97437    
     69700  -105629.21      2.3014804     -105626.91      574.35571      58853.119      497.97437    
     69800  -105629.34      2.3308913     -105627.01      581.69548      58401.759      497.97437    
     69900  -105629.66      2.7506319     -105626.91      686.44563      53146.589      497.97437    
     70000  -105629.69      2.9328381     -105626.75      731.91688      54810.149      497.97437    
     70100  -105628.81      2.2301993     -105626.58      556.56685      59876.736      497.97437    
     70200  -105628.51      2.3167388     -105626.19      578.16359      61791.554      497.97437    
     70300  -105628.74      3.0676361     -105625.67      765.55695      63160.94       497.97437    
     70400  -105629.05      3.5690018     -105625.48      890.67742      62523.72       497.97437    
     70500  -105628.73      2.9893704     -105625.74      746.02504      65496.993      497.97437    
     70600  -105628         2.0706089     -105625.93      516.73961      63730.627      497.97437    
     70700  -105629.15      3.2683993     -105625.88      815.65928      61841.316      497.97437    
     70800  -105629         3.0069041     -105625.99      750.40071      58854.842      497.97437    
     70900  -105629.07      2.7515443     -105626.32      686.67332      62822.354      497.97437    
     71000  -105628.72      2.0339076     -105626.69      507.58044      63015.311      497.97437    
     71100  -105629.64      2.7532537     -105626.88      687.09992      55697.457      497.97437    
     71200  -105629.81      2.6100797     -105627.2       651.36953      53859.033      497.97437    
     71300  -105629.37      1.8085926     -105627.56      451.351        57146.282      497.97437    
     71400  -105629.61      1.9243512     -105627.69      480.23963      54193.944      497.97437    
     71500  -105630.06      2.5738182     -105627.49      642.32012      53069.822      497.97437    
     71600  -105629.5       2.5763461     -105626.92      642.951        55464.388      497.97437    
     71700  -105628.95      2.5682662     -105626.38      640.93459      59606.435      497.97437    
     71800  -105628.62      2.5217982     -105626.1       629.33805      65888.877      497.97437    
     71900  -105628.33      2.4864283     -105625.84      620.51117      67986.301      497.97437    
     72000  -105628.8       3.2654664     -105625.53      814.92734      64392.532      497.97437    
     72100  -105628.7       3.2658144     -105625.43      815.01417      66682.463      497.97437    
     72200  -105628.78      3.1339239     -105625.64      782.09969      62684.52       497.97437    
     72300  -105628.19      2.2290369     -105625.97      556.27678      63878.753      497.97437    
     72400  -105628.9       2.7835485     -105626.12      694.66028      60614.292      497.97437    
     72500  -105629.3       2.9709251     -105626.33      741.42183      56560.539      497.97437    
     72600  -105629.15      2.3911496     -105626.76      596.7335       58360.489      497.97437    
     72700  -105629.67      2.4535094     -105627.22      612.29595      56659.48       497.97437    
     72800  -105629.54      2.0319488     -105627.51      507.09161      53446.938      497.97437    
     72900  -105629.41      1.9349542     -105627.47      482.88571      55361.072      497.97437    
     73000  -105629.85      2.6871268     -105627.17      670.59735      53958.599      497.97437    
     73100  -105629.25      2.313173      -105626.94      577.27372      58600.406      497.97437    
     73200  -105629.56      2.8092195     -105626.75      701.06671      60939.557      497.97437    
     73300  -105628.78      2.1655368     -105626.61      540.42972      61187.493      497.97437    
     73400  -105628.66      2.3409108     -105626.32      584.19593      67448.325      497.97437    
     73500  -105629.39      3.4979743     -105625.89      872.95184      58214.083      497.97437    
     73600  -105628.96      3.1397819     -105625.82      783.56161      63183.919      497.97437    
     73700  -105628.52      2.5950989     -105625.93      647.63092      64783.259      497.97437    
     73800  -105628.56      2.6106991     -105625.95      651.5241       67281.291      497.97437    
     73900  -105628.83      2.952288      -105625.88      736.77076      65230.675      497.97437    
     74000  -105628.88      3.0787997     -105625.8       768.34294      61539.884      497.97437    
[...]
    181900  -105629.02      2.5142271     -105626.5       627.44862      57332.563      497.97437    
    182000  -105629.21      2.5544721     -105626.66      637.49213      58063.708      497.97437    
    182100  -105629.23      2.464119      -105626.76      614.94369      55958.402      497.97437    
    182200  -105629.41      2.62449       -105626.79      654.96576      59005.927      497.97437    
    182300  -105629.11      2.4336817     -105626.68      607.34777      62040.909      497.97437    
    182400  -105629         2.6468227     -105626.36      660.53908      61984.724      497.97437    
    182500  -105628.74      2.8872915     -105625.85      720.5503       65741.614      497.97437    
    182600  -105628.28      2.7798081     -105625.5       693.72683      63929.853      497.97437    
    182700  -105628.69      3.4461305     -105625.24      860.01373      67698.209      497.97437    
    182800  -105628.58      3.2526215     -105625.33      811.72177      67793.604      497.97437    
    182900  -105628.41      2.7849395     -105625.62      695.00741      66305.869      497.97437    
    183000  -105628.67      2.7312396     -105625.94      681.60609      69312.422      497.97437    
    183100  -105629.11      2.8860907     -105626.23      720.25063      61176.723      497.97437    
    183200  -105629.09      2.5263674     -105626.57      630.47835      56290.275      497.97437    
    183300  -105629.24      2.4769        -105626.77      618.13331      57574.691      497.97437    
    183400  -105629.73      2.7915593     -105626.94      696.65943      55455.567      497.97437    
    183500  -105629.1       1.7738324     -105627.33      442.67627      56392.789      497.97437    
    183600  -105629.95      2.2578002     -105627.7       563.45492      52544.699      497.97437    
    183700  -105629.69      1.8312773     -105627.86      457.01219      54135.625      497.97437    
    183800  -105630.23      2.5300031     -105627.7       631.38568      48743.705      497.97437    
    183900  -105629.47      2.1584586     -105627.31      538.66331      55003.179      497.97437    
    184000  -105629.14      2.2484134     -105626.89      561.11237      59824.706      497.97437    
    184100  -105629.14      2.6052054     -105626.54      650.15309      60431.023      497.97437    
    184200  -105628.94      2.6572462     -105626.29      663.14036      62976.136      497.97437    
    184300  -105629.34      3.285813      -105626.05      820.00501      63496.638      497.97437    
    184400  -105628.61      2.5880479     -105626.03      645.87129      66775.442      497.97437    
    184500  -105628.57      2.6385001     -105625.93      658.4621       64756.185      497.97437    
    184600  -105628.77      3.0501869     -105625.72      761.20234      62842.383      497.97437    
    184700  -105628.56      3.0434326     -105625.52      759.51676      66237.312      497.97437    
    184800  -105628.75      3.3624913     -105625.39      839.14079      65946.039      497.97437    
    184900  -105628.49      2.9481977     -105625.54      735.75         64329.335      497.97437    
    185000  -105628.66      2.7407405     -105625.92      683.97713      65554.608      497.97437    
    185100  -105628.68      2.3555822     -105626.33      587.85732      62367.092      497.97437    
    185200  -105629.37      2.8223133     -105626.55      704.33439      62925.032      497.97437    
    185300  -105629.68      2.8851232     -105626.8       720.00916      55588.297      497.97437    
    185400  -105629.03      2.0128474     -105627.02      502.32467      57750.116      497.97437    
    185500  -105629.5       2.5332065     -105626.97      632.18511      58401.696      497.97437    
    185600  -105629.17      2.5662174     -105626.6       640.42328      57090.244      497.97437    
    185700  -105629.12      3.2909727     -105625.83      821.29266      61089.609      497.97437    
    185800  -105628.64      3.1957627     -105625.44      797.53213      68317.227      497.97437    
    185900  -105627.84      2.4311753     -105625.41      606.72227      67775.2        497.97437    
    186000  -105628.51      3.2087386     -105625.3       800.77039      68308.701      497.97437    
    186100  -105628.4       3.0592055     -105625.34      763.45302      66717.517      497.97437    
    186200  -105629.24      3.550795      -105625.69      886.13374      64347.919      497.97437    
    186300  -105628.58      2.325523      -105626.25      580.35578      61691.911      497.97437    
    186400  -105629.19      2.7369135     -105626.45      683.02207      61142.17       497.97437    
    186500  -105629.03      2.5219549     -105626.51      629.37718      59164.557      497.97437    
    186600  -105629.4       2.9284603     -105626.48      730.82435      59139.782      497.97437    
    186700  -105629.27      2.7955357     -105626.47      697.65177      61473.511      497.97437    
    186800  -105628.76      2.3101165     -105626.45      576.51094      64807.308      497.97437    
    186900  -105628.87      2.671246      -105626.2       666.63415      62320.004      497.97437    
    187000  -105629.13      3.5482976     -105625.58      885.51047      58487.559      497.97437    
    187100  -105628.27      3.1382848     -105625.14      783.18799      65814.813      497.97437    
    187200  -105628.06      3.1603918     -105624.9       788.70501      70932.878      497.97437    
    187300  -105627.66      2.9399126     -105624.72      733.68238      68047.554      497.97437    
    187400  -105627.87      3.5734614     -105624.3       891.79034      67511.714      497.97437    
    187500  -105628.6       4.6279257     -105623.97      1154.9416      64586.273      497.97437    
    187600  -105627.75      3.0632765     -105624.68      764.46898      71788.157      497.97437    
    187700  -105628         2.8094373     -105625.19      701.12106      74005.634      497.97437    
    187800  -105628.93      3.3269635     -105625.6       830.27451      59583.408      497.97437    
    187900  -105628.64      2.611339      -105626.03      651.68381      62963.628      497.97437    
    188000  -105629.53      3.2063684     -105626.32      800.17888      53474.623      497.97437    
    188100  -105629.33      2.6197105     -105626.71      653.77298      60919.974      497.97437    
    188200  -105628.84      1.9704144     -105626.87      491.73514      59437.086      497.97437    
    188300  -105629.64      2.9059499     -105626.73      725.20667      56548.893      497.97437    
    188400  -105629.25      2.7101766     -105626.54      676.34963      58660.772      497.97437    
    188500  -105628.87      2.5811799     -105626.29      644.1573       63688.172      497.97437    
    188600  -105628.87      3.1280984     -105625.74      780.64589      65005.374      497.97437    
    188700  -105627.74      2.4609312     -105625.28      614.14814      70395.443      497.97437    
    188800  -105628.44      3.5270391     -105624.92      880.20522      67507.653      497.97437    
    188900  -105628.79      3.7496207     -105625.04      935.75252      63375.627      497.97437    
    189000  -105628.55      3.1109254     -105625.44      776.36021      68691.406      497.97437    
    189100  -105628.25      2.4953554     -105625.76      622.73901      71098.999      497.97437    
    189200  -105628.55      2.6950678     -105625.86      672.57909      67040.763      497.97437    
    189300  -105629.32      3.342406      -105625.98      834.12832      59658.499      497.97437    
    189400  -105628.78      2.4818008     -105626.3       619.35633      61807.762      497.97437    
    189500  -105629.11      2.5932599     -105626.52      647.17198      61482.063      497.97437    
    189600  -105629.42      2.7264394     -105626.7       680.40817      57740.799      497.97437    
    189700  -105628.96      2.0999523     -105626.86      524.06251      60625.363      497.97437    
    189800  -105629.58      2.741258      -105626.84      684.10629      60367.624      497.97437    
    189900  -105629.26      2.620693      -105626.64      654.01817      59175.56       497.97437    
    190000  -105629.24      2.9966182     -105626.24      747.83379      61223.441      497.97437    
    190100  -105628.24      2.4074139     -105625.84      600.7924       60340.58       497.97437    
    190200  -105628.58      3.1770153     -105625.4       792.85355      62727.513      497.97437    
    190300  -105628.52      3.3306615     -105625.19      831.19738      63586.473      497.97437    
    190400  -105628.56      3.2561256     -105625.3       812.59625      61756.383      497.97437    
    190500  -105628.89      3.1821        -105625.71      794.12248      65260.282      497.97437    
    190600  -105628         1.9217022     -105626.08      479.57854      65009.783      497.97437    
    190700  -105629.14      3.0660658     -105626.07      765.16507      60909.308      497.97437    
    190800  -105629.5       3.3152212     -105626.19      827.3441       59017.252      497.97437    
    190900  -105628.65      2.276153      -105626.37      568.03504      61907.206      497.97437    
    191000  -105629.06      2.713276      -105626.34      677.12311      59479.636      497.97437    
    191100  -105628.84      2.5776866     -105626.26      643.28553      58048.911      497.97437    
    191200  -105629.27      3.1079841     -105626.17      775.62617      57971.254      497.97437    
    191300  -105628.5       2.3398711     -105626.16      583.93647      62780.534      497.97437    
    191400  -105629.19      3.1507984     -105626.04      786.31089      62635.153      497.97437    
    191500  -105628.85      2.8356041     -105626.01      707.65122      58092.398      497.97437    
    191600  -105628.44      2.4294017     -105626.01      606.27966      62573.381      497.97437    
    191700  -105628.95      3.1271799     -105625.82      780.41666      65042.535      497.97437    
    191800  -105629.03      3.5234709     -105625.51      879.31475      63517.348      497.97437    
    191900  -105628.24      3.066661      -105625.17      765.31361      62464.697      497.97437    
    192000  -105627.53      2.6698404     -105624.86      666.28336      69828.706      497.97437    
    192100  -105628.03      3.567059      -105624.46      890.19255      63920.201      497.97437    
    192200  -105628.57      4.1000183     -105624.47      1023.1975      65943.936      497.97437    
    192300  -105628.01      2.8895276     -105625.12      721.10833      64325.954      497.97437    
    192400  -105628.55      2.9752119     -105625.58      742.49165      66279.746      497.97437    
    192500  -105628.57      2.7004244     -105625.87      673.91588      60930.477      497.97437    
    192600  -105629.1       3.0402168     -105626.06      758.71421      57639.024      497.97437    
    192700  -105629.33      2.9944688     -105626.34      747.29738      57452.035      497.97437    
    192800  -105629.1       2.4708024     -105626.63      616.61158      57196.65       497.97437    
    192900  -105628.89      2.1566591     -105626.73      538.21421      56844.413      497.97437    
    193000  -105629.43      2.8459666     -105626.58      710.23728      58985.943      497.97437    
    193100  -105628.91      2.6291659     -105626.29      656.13266      59376.364      497.97437    
    193200  -105629.04      3.4042754     -105625.64      849.5684       60322.368      497.97437    
    193300  -105628.14      3.0824767     -105625.06      769.26055      62926.795      497.97437    
    193400  -105627.88      3.0004705     -105624.88      748.79516      72639.853      497.97437    
    193500  -105627.87      3.024091      -105624.85      754.68988      64448.862      497.97437    
    193600  -105628.59      3.6135104     -105624.98      901.78493      65948.331      497.97437    
    193700  -105628.81      3.3943432     -105625.41      847.08973      63600.774      497.97437    
    193800  -105628.4       2.5750386     -105625.82      642.62469      59664.783      497.97437    
    193900  -105628.68      2.7322293     -105625.94      681.85309      62883.94       497.97437    
    194000  -105629.2       3.1667081     -105626.03      790.2813       60683.542      497.97437    
    194100  -105628.82      2.5704554     -105626.25      641.48092      62749.36       497.97437    
    194200  -105629.06      2.6787944     -105626.38      668.51792      57541.798      497.97437    
    194300  -105629.34      2.8308766     -105626.5       706.47143      58040.213      497.97437    
    194400  -105628.81      2.1169811     -105626.7       528.31221      59427.247      497.97437    
    194500  -105629.11      2.3601016     -105626.75      588.98518      61294.723      497.97437    
    194600  -105630.19      3.5323683     -105626.65      881.53517      54505.996      497.97437    
    194700  -105628.74      1.9673544     -105626.77      490.97148      59817.894      497.97437    
    194800  -105629.01      2.3799879     -105626.63      593.948        56925.908      497.97437    
    194900  -105629.08      2.9014618     -105626.18      724.08662      59868.821      497.97437    
    195000  -105629         3.2151264     -105625.78      802.36452      61761.903      497.97437    
    195100  -105628.84      3.194743      -105625.65      797.27767      65810.014      497.97437    
    195200  -105628.23      2.5249393     -105625.7       630.12195      65610.635      497.97437    
    195300  -105628.22      2.5629238     -105625.66      639.60134      64760.893      497.97437    
    195400  -105628.84      3.4344691     -105625.4       857.10353      65169.651      497.97437    
    195500  -105628.69      3.4655421     -105625.22      864.85808      67275.542      497.97437    
    195600  -105628.46      3.0574681     -105625.41      763.01944      62656.121      497.97437    
    195700  -105628.14      2.3476594     -105625.79      585.8801       64151.887      497.97437    
    195800  -105629.18      3.0951408     -105626.08      772.42102      61494.763      497.97437    
    195900  -105629.21      2.6969939     -105626.52      673.05976      57698.942      497.97437    
    196000  -105628.94      2.1860985     -105626.76      545.56111      57303.918      497.97437    
    196100  -105629.8       3.0220319     -105626.78      754.17601      54737.742      497.97437    
    196200  -105629.13      2.3155356     -105626.81      577.86332      59216.141      497.97437    
    196300  -105628.82      2.1698797     -105626.65      541.51356      62032.234      497.97437    
    196400  -105629.33      3.3879531     -105625.94      845.49502      60203.988      497.97437    
    196500  -105628.37      2.8581236     -105625.51      713.27117      69274.418      497.97437    
    196600  -105628.27      2.8738917     -105625.4       717.20624      61698.114      497.97437    
    196700  -105628.71      3.3094562     -105625.4       825.90541      65359.133      497.97437    
    196800  -105628.39      2.8168735     -105625.57      702.97684      64341.173      497.97437    
    196900  -105628.91      3.1246268     -105625.79      779.77951      64005.727      497.97437    
    197000  -105628.69      2.5472653     -105626.14      635.69361      62379.318      497.97437    
    197100  -105629.19      2.8099474     -105626.38      701.24837      57353.769      497.97437    
    197200  -105629.34      2.6925448     -105626.65      671.94945      56990.445      497.97437    
    197300  -105629.13      2.2614548     -105626.87      564.36697      59861.172      497.97437    
    197400  -105629.57      2.5884678     -105626.99      645.97609      54489.239      497.97437    
    197500  -105629.32      2.1603975     -105627.16      539.14718      56925.633      497.97437    
    197600  -105629.42      2.2141181     -105627.2       552.55364      61429.476      497.97437    
    197700  -105629.69      2.703489      -105626.98      674.68068      57585.088      497.97437    
    197800  -105629.01      2.3649405     -105626.64      590.19278      62469.153      497.97437    
    197900  -105629.02      2.8185478     -105626.2       703.39466      62719.011      497.97437    
    198000  -105628.47      2.6598048     -105625.81      663.77889      65529.959      497.97437    
    198100  -105628.72      3.1902269     -105625.52      796.15063      61575.581      497.97437    
    198200  -105628.45      3.0423454     -105625.41      759.24542      61012.419      497.97437    
    198300  -105628.65      3.1820103     -105625.47      794.10009      67849.329      497.97437    
    198400  -105628.43      2.7236515     -105625.71      679.71243      64301.008      497.97437    
    198500  -105629.02      2.9266123     -105626.1       730.36316      64048.791      497.97437    
    198600  -105628.8       2.2682449     -105626.53      566.06149      60123.96       497.97437    
    198700  -105629.73      2.9143932     -105626.81      727.31377      57723.521      497.97437    
    198800  -105629.36      2.3448623     -105627.01      585.18207      57905.77       497.97437    
    198900  -105629.33      2.3311043     -105627         581.74863      56991.321      497.97437    
    199000  -105629.38      2.5268842     -105626.85      630.60731      56854.15       497.97437    
    199100  -105629         2.3040928     -105626.69      575.00767      61428.417      497.97437    
    199200  -105629.29      2.7664482     -105626.52      690.39274      58717.34       497.97437    
    199300  -105629.44      3.0295702     -105626.41      756.05726      56752.868      497.97437    
    199400  -105628.34      1.9904748     -105626.35      496.74139      60362.852      497.97437    
    199500  -105629.27      3.2570292     -105626.02      812.82175      61238.162      497.97437    
    199600  -105628.79      3.0524311     -105625.74      761.7624       62792.475      497.97437    
    199700  -105628.44      2.7679526     -105625.67      690.76818      64339.345      497.97437    
    199800  -105628.57      2.9848686     -105625.58      744.90155      63501.153      497.97437    
    199900  -105628.42      2.9105252     -105625.51      726.34848      68420.502      497.97437    
    200000  -105628.59      3.1492278     -105625.44      785.91893      66505.725      497.97437    
Loop time of 280.155 on 2 procs for 200000 steps with 32 atoms

Performance: 30.840 ns/day, 0.778 hours/ns, 713.891 timesteps/s, 22.845 katom-step/s
97.4% CPU use with 1 MPI tasks x 2 OpenMP threads

MPI task timing breakdown:
Section |  min time  |  avg time  |  max time  |%varavg| %total
---------------------------------------------------------------
Pair    | 275.56     | 275.56     | 275.56     |   0.0 | 98.36
Neigh   | 2.7773     | 2.7773     | 2.7773     |   0.0 |  0.99
Comm    | 0.95643    | 0.95643    | 0.95643    |   0.0 |  0.34
Output  | 0.072889   | 0.072889   | 0.072889   |   0.0 |  0.03
Modify  | 0.61316    | 0.61316    | 0.61316    |   0.0 |  0.22
Other   |            | 0.1733     |            |       |  0.06

Nlocal:             32 ave          32 max          32 min
Histogram: 1 0 0 0 0 0 0 0 0 0
Nghost:            946 ave         946 max         946 min
Histogram: 1 0 0 0 0 0 0 0 0 0
Neighs:              0 ave           0 max           0 min
Histogram: 1 0 0 0 0 0 0 0 0 0
FullNghs:         4420 ave        4420 max        4420 min
Histogram: 1 0 0 0 0 0 0 0 0 0

Total # of neighbors = 4420
Ave neighs/atom = 138.125
Neighbor list builds = 20000
Dangerous builds not checked

write_restart   lammps.restart
System init for write_restart ...
Generated 0 of 0 mixed pair_coeff terms from geometric mixing rule
Total wall time: 0:04:50
