LAMMPS (2 Aug 2023 - Update 1)
  using 2 OpenMP thread(s) per MPI task
Loaded 1 plugins from /home/ch24d003/.conda/envs/deepmd_gpu/lib/deepmd_lmp
plugin load     libdeepmd_lmp.so

units           metal

boundary        p p p

atom_style      atomic

neighbor        2.0 bin

neigh_modify    every 10 delay 0 check no

read_data       /scratch/ch24d003/ActiveLearning_Pt/bulk/bulk.lmp
Reading data file ...
  orthogonal box = (0 0 0) to (7.8948334 7.8700436 8.0146928)
  1 by 1 by 1 MPI processor grid
  reading atoms ...
  32 atoms
  read_data CPU = 0.002 seconds

mass            1 195.084

pair_style deepmd /scratch/ch24d003/ActiveLearning_Pt/DP_models/1/graph1.pb /scratch/ch24d003/ActiveLearning_Pt/DP_models/2/graph2.pb /scratch/ch24d003/ActiveLearning_Pt/DP_models/3/graph3.pb out_file md.out out_freq 100
Summary of lammps deepmd module ...
  >>> Info of deepmd-kit:
  installed to:       /home/ch24d003/.conda/envs/deepmd_gpu
  source:             v2.2.9
  source branch:      HEAD
  source commit:      be437483
  source commit at:   2024-02-04 13:44:12 +0800
  support model ver.: 1.1 
  build variant:      cuda
  build with tf inc:  /home/ch24d003/.conda/envs/deepmd_gpu/include;/home/ch24d003/.conda/envs/deepmd_gpu/include
  build with tf lib:  /home/ch24d003/.conda/envs/deepmd_gpu/lib/libtensorflow_cc.so
  set tf intra_op_parallelism_threads: 0
  set tf inter_op_parallelism_threads: 0
  >>> Info of lammps module:
  use deepmd-kit at:  /home/ch24d003/.conda/envs/deepmd_gpu
pair_coeff      * *

velocity        all create 600 12345678

fix             1 all nvt temp 600 600 0.1

timestep        0.0005

thermo_style    custom step pe ke etotal temp press vol

thermo          100

dump            1 all dcd 100 bulk.dcd

timer timeout   03:00:00 every 100
New timer settings: style=normal  mode=nosync  timeout=03:00:00

run             200000

CITE-CITE-CITE-CITE-CITE-CITE-CITE-CITE-CITE-CITE-CITE-CITE-CITE

Your simulation uses code contributions which should be cited:

- USER-DEEPMD package:

@article{Wang_ComputPhysCommun_2018_v228_p178,
  author = {Wang, Han and Zhang, Linfeng and Han, Jiequn and E, Weinan},
  doi = {10.1016/j.cpc.2018.03.016},
  url = {https://doi.org/10.1016/j.cpc.2018.03.016},
  year = 2018,
  month = {jul},
  publisher = {Elsevier {BV}},
  volume = 228,
  journal = {Comput. Phys. Commun.},
  title = {{DeePMD-kit: A deep learning package for many-body potential energy representation and molecular dynamics}},
  pages = {178--184}
}
@misc{Zeng_JChemPhys_2023_v159_p054801,
  title  = {{DeePMD-kit v2: A software package for deep potential models}},
  author =   {Jinzhe Zeng and Duo Zhang and Denghui Lu and Pinghui Mo and Zeyu Li
         and Yixiao Chen and Mari{\'a}n Rynik and Li'ang Huang and Ziyao Li and 
         Shaochen Shi and Yingze Wang and Haotian Ye and Ping Tuo and Jiabin
         Yang and Ye Ding and Yifan Li and Davide Tisi and Qiyu Zeng and Han 
         Bao and Yu Xia and Jiameng Huang and Koki Muraoka and Yibo Wang and 
         Junhan Chang and Fengbo Yuan and Sigbj{\o}rn L{\o}land Bore and Chun
         Cai and Yinnian Lin and Bo Wang and Jiayan Xu and Jia-Xin Zhu and 
         Chenxing Luo and Yuzhi Zhang and Rhys E A Goodall and Wenshuo Liang
         and Anurag Kumar Singh and Sikai Yao and Jingchao Zhang and Renata
         Wentzcovitch and Jiequn Han and Jie Liu and Weile Jia and Darrin M
         York and Weinan E and Roberto Car and Linfeng Zhang and Han Wang},
  journal =  {J. Chem. Phys.},
  volume =   159,
  issue =    5,  
  year =    2023,
  pages  =   054801,
  doi =      {10.1063/5.0155600},
}

CITE-CITE-CITE-CITE-CITE-CITE-CITE-CITE-CITE-CITE-CITE-CITE-CITE

Generated 0 of 0 mixed pair_coeff terms from geometric mixing rule
Neighbor list info ...
  update: every = 10 steps, delay = 0 steps, check = no
  max neighbors/atom: 2000, page size: 100000
  master list distance cutoff = 8
  ghost atom cutoff = 8
  binsize = 4, bins = 2 2 3
  1 neighbor lists, perpetual/occasional/extra = 1 0 0
  (1) pair deepmd, perpetual
      attributes: full, newton on
      pair build: full/bin/atomonly
      stencil: full/bin/3d
      bin: standard
Per MPI rank memory allocation (min/avg/max) = 3.499 | 3.499 | 3.499 Mbytes
   Step         PotEng         KinEng         TotEng          Temp          Press          Volume    
         0  -105632.03      2.4042387     -105629.62      600            24918.8        497.97437    
       100  -105630.3       0.7307105     -105629.57      182.35556      44610.855      497.97437    
       200  -105630.45      1.0896789     -105629.36      271.93944      47401.154      497.97437    
       300  -105630.29      1.2126966     -105629.08      302.63965      46558.638      497.97437    
       400  -105630.82      2.1287353     -105628.69      531.24558      42790.528      497.97437    
       500  -105630.24      2.0078062     -105628.23      501.06659      47971.627      497.97437    
       600  -105629.55      1.6965826     -105627.86      423.39789      50984.584      497.97437    
       700  -105629.41      2.0119464     -105627.4       502.09983      53846.736      497.97437    
       800  -105629.4       2.4681758     -105626.93      615.95611      60368.226      497.97437    
       900  -105629.31      2.7334492     -105626.58      682.15752      56253.984      497.97437    
      1000  -105629.5       3.0749464     -105626.42      767.38131      53698.841      497.97437    
      1100  -105628.76      2.1811043     -105626.58      544.31474      60971.007      497.97437    
      1200  -105628.74      2.0805564     -105626.66      519.22209      63712.594      497.97437    
      1300  -105629.73      3.0805957     -105626.65      768.79115      53854.152      497.97437    
      1400  -105629.54      2.5640531     -105626.97      639.88317      55319.178      497.97437    
      1500  -105629.34      2.049546      -105627.29      511.48315      59849.666      497.97437    
      1600  -105629.5       2.0808319     -105627.42      519.29084      56815.302      497.97437    
      1700  -105629.94      2.5159155     -105627.42      627.86997      49681.409      497.97437    
      1800  -105629.64      2.2031042     -105627.44      549.80502      51391.232      497.97437    
      1900  -105629.32      1.9546121     -105627.37      487.79153      54029.306      497.97437    
      2000  -105629.92      2.9417005     -105626.98      734.12857      54607.457      497.97437    
      2100  -105629.18      2.6016638     -105626.58      649.26926      51984.337      497.97437    
      2200  -105628.45      2.0774716     -105626.37      518.45225      61002.081      497.97437    
      2300  -105629.05      3.0460878     -105626         760.17937      59586.319      497.97437    
      2400  -105628.98      3.0477317     -105625.93      760.58962      64059.928      497.97437    
      2500  -105628.78      2.5771529     -105626.2       643.15233      60295.23       497.97437    
      2600  -105628.86      2.3639212     -105626.49      589.9384       60451.167      497.97437    
      2700  -105629.39      2.7381967     -105626.65      683.3423       56467.046      497.97437    
      2800  -105629.4       2.5792254     -105626.82      643.66955      55954.652      497.97437    
      2900  -105629.31      2.3782661     -105626.93      593.51831      56625.566      497.97437    
      3000  -105629.35      2.3418514     -105627.01      584.43066      54076.523      497.97437    
      3100  -105629.55      2.4837403     -105627.06      619.84035      53848.816      497.97437    
      3200  -105629.46      2.2845701     -105627.17      570.1356       54266.177      497.97437    
      3300  -105629.37      2.103733      -105627.26      525.00602      55642.011      497.97437    
      3400  -105629.57      2.3321585     -105627.24      582.01171      55554.071      497.97437    
      3500  -105629.74      2.6017583     -105627.13      649.29285      55070.238      497.97437    
      3600  -105629.43      2.3857        -105627.05      595.37349      55489.805      497.97437    
      3700  -105629.18      2.288309      -105626.9       571.06867      54472.779      497.97437    
      3800  -105628.91      2.2890531     -105626.62      571.25436      59340.948      497.97437    
      3900  -105629.06      2.8323313     -105626.23      706.83446      59285.367      497.97437    
      4000  -105629.35      3.2870375     -105626.06      820.31059      60704.904      497.97437    
      4100  -105629.11      2.6946457     -105626.41      672.47376      59684.714      497.97437    
      4200  -105628.63      1.884679      -105626.74      470.33906      63049.126      497.97437    
      4300  -105629.37      2.5718597     -105626.8       641.83138      53687.284      497.97437    
      4400  -105629.76      2.8419846     -105626.92      709.24355      55399.19       497.97437    
      4500  -105629.69      2.5313125     -105627.16      631.71244      52128.969      497.97437    
      4600  -105629.23      1.9353977     -105627.29      482.99639      57885.093      497.97437    
      4700  -105629.27      2.0403512     -105627.22      509.1885       54721.172      497.97437    
      4800  -105629.78      2.7150381     -105627.06      677.56285      55667.69       497.97437    
      4900  -105629.38      2.3462879     -105627.03      585.53783      57479.35       497.97437    
      5000  -105629.53      2.5165729     -105627.02      628.03405      56513.711      497.97437    
      5100  -105629.13      2.1048243     -105627.02      525.27836      54136.644      497.97437    
      5200  -105629.21      2.3092805     -105626.9       576.30231      57433.912      497.97437    
      5300  -105629.53      3.1348745     -105626.39      782.33692      58354.813      497.97437    
      5400  -105628.94      3.061545      -105625.87      764.03687      62519.769      497.97437    
      5500  -105628.22      2.5442429     -105625.67      634.93936      57273.005      497.97437    
      5600  -105628.37      2.8334851     -105625.54      707.12241      59707.778      497.97437    
      5700  -105629.09      3.4285103     -105625.67      855.61646      61773.57       497.97437    
      5800  -105629.33      2.7578247     -105626.57      688.24067      56944.237      497.97437    
      5900  -105629.04      2.015154      -105627.03      502.90032      57122.388      497.97437    
      6000  -105629.25      2.1727359     -105627.07      542.22633      55335.276      497.97437    
      6100  -105630.2       3.1130185     -105627.08      776.88256      50511.221      497.97437    
      6200  -105629.07      1.7499925     -105627.32      436.72681      53727.295      497.97437    
      6300  -105629.71      2.3749683     -105627.33      592.69531      51906.288      497.97437    
      6400  -105629.44      2.1639068     -105627.28      540.02294      52130.581      497.97437    
      6500  -105629.73      2.5953317     -105627.14      647.68902      55971.715      497.97437    
      6600  -105629.46      2.509496      -105626.95      626.26792      56303.581      497.97437    
      6700  -105628.88      2.1148366     -105626.76      527.77702      59126.672      497.97437    
      6800  -105629.2       2.8695794     -105626.33      716.13007      60455.019      497.97437    
      6900  -105628.59      2.5682212     -105626.02      640.92336      64290.741      497.97437    
      7000  -105629.29      3.3813671     -105625.91      843.85142      57147.434      497.97437    
      7100  -105628.94      2.6233024     -105626.32      654.66937      52704.16       497.97437    
      7200  -105629.05      2.2962155     -105626.75      573.04181      58278.249      497.97437    
      7300  -105628.87      1.9826169     -105626.88      494.78037      63615.69       497.97437    
      7400  -105629.76      2.9092282     -105626.85      726.0248       52839.91       497.97437    
      7500  -105629.97      2.8885238     -105627.08      720.85782      51580.652      497.97437    
      7600  -105628.75      1.4323721     -105627.32      357.46171      60010.365      497.97437    
      7700  -105629.63      2.4158711     -105627.21      602.90298      58397.221      497.97437    
      7800  -105629.62      2.5825626     -105627.04      644.50238      53973.542      497.97437    
      7900  -105629.56      2.6019681     -105626.96      649.34521      53299.038      497.97437    
      8000  -105629.02      2.1120441     -105626.91      527.08013      55373.155      497.97437    
      8100  -105629.45      2.8064967     -105626.64      700.38721      54939.926      497.97437    
      8200  -105629.1       2.8593134     -105626.24      713.56809      57488.09       497.97437    
      8300  -105628.42      2.4234028     -105626         604.78259      63547.647      497.97437    
      8400  -105628.79      3.0348878     -105625.75      757.38432      66603.702      497.97437    
      8500  -105628.49      2.7242837     -105625.77      679.87019      62232.831      497.97437    
      8600  -105628.66      2.6153397     -105626.04      652.68221      61511.003      497.97437    
      8700  -105629.5       2.8192699     -105626.68      703.57489      56488.898      497.97437    
      8800  -105629.08      1.9718041     -105627.11      492.08194      56910.184      497.97437    
      8900  -105629.97      2.7685787     -105627.21      690.92441      52853.133      497.97437    
      9000  -105629.5       2.1328525     -105627.37      532.27306      58126.422      497.97437    
      9100  -105629.34      1.9465965     -105627.4       485.79117      55493.732      497.97437    
      9200  -105629.51      2.2871753     -105627.23      570.78574      52234.544      497.97437    
      9300  -105629.82      2.9005853     -105626.92      723.86789      50446.382      497.97437    
      9400  -105629.09      2.3189341     -105626.77      578.71146      53817.882      497.97437    
      9500  -105629.11      2.518274      -105626.59      628.45856      61428.664      497.97437    
      9600  -105629.13      2.8967898     -105626.24      722.92067      61876.664      497.97437    
      9700  -105628.29      2.4136144     -105625.87      602.33979      64602.455      497.97437    
      9800  -105628.97      3.5661816     -105625.4       889.9736       60254.437      497.97437    
      9900  -105628.63      3.1382828     -105625.49      783.18749      65568.595      497.97437    
     10000  -105628.41      2.456834      -105625.95      613.12565      66249.188      497.97437    
     10100  -105629.01      2.6986672     -105626.31      673.47735      63006.159      497.97437    
     10200  -105629.5       2.9020385     -105626.59      724.23054      56276.479      497.97437    
     10300  -105629.3       2.4232754     -105626.88      604.75077      55963.743      497.97437    
     10400  -105629.59      2.5278789     -105627.06      630.85555      52928.997      497.97437    
     10500  -105629.3       2.0592966     -105627.24      513.91651      57133.526      497.97437    
     10600  -105629.31      2.0549051     -105627.26      512.82057      53967.873      497.97437    
     10700  -105629.94      2.8113685     -105627.13      701.603        55929.015      497.97437    
     10800  -105629.33      2.2218731     -105627.11      554.48899      55648.97       497.97437    
     10900  -105629.48      2.4579429     -105627.02      613.40239      58031.415      497.97437    
     11000  -105629.03      2.2150547     -105626.81      552.78737      62083.337      497.97437    
     11100  -105629.15      2.7520813     -105626.4       686.80734      62373.04       497.97437    
     11200  -105629.06      2.9736896     -105626.09      742.11174      58373.816      497.97437    
     11300  -105629.03      2.9042877     -105626.12      724.79184      60450.087      497.97437    
     11400  -105628.6       2.1862997     -105626.41      545.61131      62413.633      497.97437    
     11500  -105628.76      2.1528602     -105626.6       537.26618      61026.277      497.97437    
     11600  -105629.97      3.1303536     -105626.83      781.20869      54572.252      497.97437    
     11700  -105629.77      2.2912637     -105627.48      571.80604      51492.087      497.97437    
     11800  -105629.7       1.9348083     -105627.76      482.84931      50005.319      497.97437    
     11900  -105629.82      2.0842357     -105627.74      520.14031      50752.621      497.97437    
     12000  -105629.69      2.084491      -105627.61      520.204        51496.768      497.97437    
     12100  -105629.86      2.4898334     -105627.37      621.36096      51391.386      497.97437    
     12200  -105629.41      2.2698803     -105627.14      566.46961      56218.102      497.97437    
     12300  -105629.32      2.4139175     -105626.91      602.41544      54036.141      497.97437    
     12400  -105628.97      2.3180833     -105626.65      578.49914      59191.99       497.97437    
     12500  -105629.45      3.0397139     -105626.41      758.58871      57727.031      497.97437    
     12600  -105628.7       2.269563      -105626.43      566.39043      64978.86       497.97437    
     12700  -105629.2       2.7368241     -105626.46      682.99977      61754.779      497.97437    
     12800  -105629.18      2.4179466     -105626.77      603.42095      60888.043      497.97437    
     12900  -105629.15      1.8288504     -105627.32      456.40652      55179.651      497.97437    
     13000  -105630.23      2.6166408     -105627.62      653.0069       50278.777      497.97437    
     13100  -105630.14      2.2731003     -105627.87      567.27319      48255.667      497.97437    
     13200  -105629.67      1.7182369     -105627.95      428.8019       54483.57       497.97437    
     13300  -105629.57      1.7807121     -105627.79      444.39316      54303.964      497.97437    
     13400  -105629.76      2.3531808     -105627.41      587.25802      55199.381      497.97437    
     13500  -105629.64      2.4960118     -105627.15      622.90283      55036.051      497.97437    
     13600  -105629.33      2.2903934     -105627.04      571.58885      51490.312      497.97437    
     13700  -105629.21      2.2809761     -105626.93      569.23869      55126.151      497.97437    
     13800  -105629.22      2.4372358     -105626.78      608.23472      55540.835      497.97437    
     13900  -105629.79      3.1238946     -105626.67      779.59679      55012.043      497.97437    
     14000  -105628.81      1.9596209     -105626.85      489.04151      59636.888      497.97437    
     14100  -105629.31      2.3468719     -105626.96      585.68359      56575.367      497.97437    
     14200  -105629.78      2.5561252     -105627.22      637.90468      55020.332      497.97437    
     14300  -105629.7       2.033759      -105627.67      507.54336      51840.24       497.97437    
     14400  -105629.86      1.9270298     -105627.94      480.9081       49664.683      497.97437    
     14500  -105629.89      1.9290372     -105627.96      481.40907      50854.139      497.97437    
     14600  -105630.12      2.336224      -105627.79      583.02631      50160.015      497.97437    
     14700  -105629.65      2.1390322     -105627.52      533.81528      51996.227      497.97437    
     14800  -105629.31      2.1373822     -105627.18      533.4035       55306.454      497.97437    
     14900  -105629.53      2.6809435     -105626.85      669.05424      54054.392      497.97437    
     15000  -105628.97      2.2008602     -105626.77      549.245        63438.091      497.97437    
     15100  -105629.19      2.497109      -105626.69      623.17663      60294.635      497.97437    
     15200  -105629.15      2.5015679     -105626.65      624.28941      56760.812      497.97437    
     15300  -105629.16      2.4894094     -105626.67      621.25513      58357.534      497.97437    
     15400  -105629.27      2.5219223     -105626.74      629.36904      59400.566      497.97437    
     15500  -105629.62      2.6264608     -105626.99      655.45759      58672.266      497.97437    
     15600  -105629.41      2.0077835     -105627.41      501.06095      52806.477      497.97437    
     15700  -105629.72      2.0343809     -105627.69      507.69857      52397.89       497.97437    
     15800  -105629.81      2.0407141     -105627.77      509.27907      50461.855      497.97437    
     15900  -105630.35      2.6239657     -105627.73      654.8349       48588.834      497.97437    
     16000  -105629.19      1.4833936     -105627.71      370.19458      51869.002      497.97437    
     16100  -105629.67      2.3998014     -105627.27      598.89264      56774.17       497.97437    
     16200  -105629.36      2.6996917     -105626.66      673.73303      53104.958      497.97437    
     16300  -105629.07      2.5073413     -105626.57      625.73021      58821.744      497.97437    
     16400  -105628.94      2.3680036     -105626.57      590.9572       57288.499      497.97437    
     16500  -105629.07      2.5017965     -105626.56      624.34645      55332.427      497.97437    
     16600  -105629.47      2.8359529     -105626.64      707.73827      60113.611      497.97437    
     16700  -105629.37      2.4256398     -105626.94      605.34084      54805.283      497.97437    
     16800  -105629.34      2.086281      -105627.25      520.6507       54762.671      497.97437    
     16900  -105629.83      2.4200452     -105627.41      603.94465      49847.261      497.97437    
     17000  -105629.9       2.3134232     -105627.58      577.33615      53750.593      497.97437    
     17100  -105629.56      1.8463675     -105627.72      460.77809      56325.399      497.97437    
     17200  -105629.77      2.1228237     -105627.65      529.77029      51304.004      497.97437    
     17300  -105629.34      2.11544       -105627.22      527.92761      58140.51       497.97437    
     17400  -105629.33      2.7110704     -105626.62      676.5727       57622.178      497.97437    
     17500  -105629.17      2.7689443     -105626.4       691.01566      53698.35       497.97437    
     17600  -105628.96      2.5251435     -105626.43      630.17291      58028.769      497.97437    
     17700  -105629.11      2.551605      -105626.56      636.77662      60343.792      497.97437    
     17800  -105628.72      2.0050045     -105626.72      500.36742      60925.47       497.97437    
     17900  -105629.9       3.0792906     -105626.82      768.46544      50869.129      497.97437    
     18000  -105629.73      2.4214963     -105627.3       604.30681      55562.003      497.97437    
     18100  -105629.29      1.6600983     -105627.63      414.29287      58244.914      497.97437    
     18200  -105629.72      2.1007871     -105627.62      524.27085      54853.822      497.97437    
     18300  -105629.81      2.3283687     -105627.49      581.06595      49365.448      497.97437    
     18400  -105630.08      2.7069414     -105627.37      675.54225      50949.503      497.97437    
     18500  -105629.06      1.7159232     -105627.34      428.22451      54348.239      497.97437    
     18600  -105629.47      2.3464967     -105627.13      585.58995      56725.815      497.97437    
     18700  -105629.32      2.4716487     -105626.85      616.82278      57720.658      497.97437    
     18800  -105629.7       2.9313909     -105626.77      731.5557       53267.086      497.97437    
     18900  -105628.92      2.0595796     -105626.86      513.98714      57083.321      497.97437    
     19000  -105629.23      2.4124697     -105626.82      602.05412      59608.115      497.97437    
     19100  -105629.11      2.3579871     -105626.75      588.45748      62855.326      497.97437    
     19200  -105629.73      3.0154959     -105626.72      752.54489      54446.441      497.97437    
     19300  -105629.36      2.3826172     -105626.98      594.60416      53992.823      497.97437    
     19400  -105628.98      1.7752547     -105627.21      443.03124      52622.877      497.97437    
     19500  -105629.81      2.5054254     -105627.31      625.25208      56169.396      497.97437    
     19600  -105629.81      2.3184144     -105627.49      578.58175      55606.132      497.97437    
     19700  -105629.87      2.0358044     -105627.83      508.05382      52354.924      497.97437    
     19800  -105629.72      1.6249103     -105628.1       405.51138      52521.878      497.97437    
     19900  -105630.28      2.1403087     -105628.14      534.13384      46245.255      497.97437    
     20000  -105629.92      1.894791      -105628.02      472.86262      51080.928      497.97437    
     20100  -105629.85      2.2227703     -105627.63      554.71289      51181.146      497.97437    
     20200  -105629.43      2.290668      -105627.14      571.65739      54441.149      497.97437    
     20300  -105629.18      2.253775      -105626.92      562.4504       64708.838      497.97437    
     20400  -105629.15      2.3985172     -105626.75      598.57214      63095.776      497.97437    
     20500  -105629.11      2.494321      -105626.61      622.48086      57093.093      497.97437    
     20600  -105629.82      3.2506655     -105626.57      811.23364      51768.979      497.97437    
     20700  -105628.86      1.9892151     -105626.87      496.42702      57751.178      497.97437    
     20800  -105629.26      2.230778      -105627.03      556.71127      58899.525      497.97437    
     20900  -105629.59      2.428339      -105627.16      606.01446      55026.601      497.97437    
     21000  -105629.53      2.1399301     -105627.39      534.03934      56959.333      497.97437    
     21100  -105630.04      2.3266271     -105627.71      580.63132      53746.66       497.97437    
     21200  -105629.78      1.6743942     -105628.11      417.86055      51418.486      497.97437    
     21300  -105630.08      1.8660518     -105628.22      465.69049      48539.051      497.97437    
     21400  -105629.99      1.8878748     -105628.11      471.13662      50689.695      497.97437    
     21500  -105630.19      2.4431204     -105627.75      609.70328      51385.192      497.97437    
     21600  -105629.65      2.2532203     -105627.39      562.31195      55325.592      497.97437    
     21700  -105628.98      1.7661761     -105627.22      440.76557      60933.715      497.97437    
     21800  -105629.27      2.2570143     -105627.01      563.25878      58230.227      497.97437    
     21900  -105629.79      2.9521264     -105626.84      736.73045      54046.323      497.97437    
     22000  -105629.38      2.4688093     -105626.91      616.1142       56636.696      497.97437    
     22100  -105629.29      2.2482107     -105627.04      561.06177      57565.51       497.97437    
     22200  -105629.33      2.222739      -105627.11      554.70506      60640.475      497.97437    
     22300  -105629.21      2.1147615     -105627.1       527.75829      64412.231      497.97437    
     22400  -105629.88      2.949148      -105626.93      735.98717      53267.576      497.97437    
     22500  -105629.32      2.437641      -105626.88      608.33585      56911.462      497.97437    
     22600  -105629.07      2.1769949     -105626.9       543.28921      58355.081      497.97437    
     22700  -105629.44      2.6380674     -105626.81      658.35412      61582.381      497.97437    
     22800  -105628.95      2.2000175     -105626.75      549.0347       59537.942      497.97437    
     22900  -105629.67      3.0510439     -105626.62      761.41623      55585.992      497.97437    
     23000  -105629.12      2.3788752     -105626.74      593.6703       59465.72       497.97437    
     23100  -105629.49      2.5313319     -105626.96      631.71729      58374.289      497.97437    
     23200  -105629.21      1.9449907     -105627.26      485.39041      57505.866      497.97437    
     23300  -105629.61      2.2115104     -105627.4       551.90288      59011.646      497.97437    
     23400  -105629.86      2.3691569     -105627.49      591.245        52870.488      497.97437    
     23500  -105629.6       2.0132492     -105627.59      502.42495      52427.962      497.97437    
     23600  -105629.75      2.1919521     -105627.56      547.02193      51260.02       497.97437    
     23700  -105629.81      2.4724084     -105627.33      617.01238      55971.913      497.97437    
     23800  -105629.35      2.3735293     -105626.98      592.33618      57969.16       497.97437    
     23900  -105629.08      2.4662921     -105626.61      615.48601      59688.69       497.97437    
     24000  -105628.84      2.5247486     -105626.31      630.07435      57406.107      497.97437    
     24100  -105629.08      2.9183651     -105626.17      728.30499      59934.609      497.97437    
     24200  -105629.29      2.9858237     -105626.31      745.13992      59484.544      497.97437    
     24300  -105628.88      2.1891077     -105626.7       546.31208      59125.328      497.97437    
     24400  -105629.49      2.5384475     -105626.95      633.49304      56442.676      497.97437    
     24500  -105629.3       2.1735586     -105627.13      542.43165      59242.405      497.97437    
     24600  -105629.49      2.3438968     -105627.14      584.94111      54934.485      497.97437    
     24700  -105629.71      2.5675644     -105627.14      640.75944      54645.968      497.97437    
     24800  -105629.59      2.4053966     -105627.19      600.28897      54647.372      497.97437    
     24900  -105629.5       2.2710469     -105627.23      566.76076      57929.551      497.97437    
     25000  -105629.22      2.02937       -105627.19      506.44804      55018.473      497.97437    
     25100  -105629.8       2.8460994     -105626.95      710.27042      53875.069      497.97437    
     25200  -105628.89      2.1953895     -105626.69      547.87975      59452.506      497.97437    
     25300  -105629.29      3.1328706     -105626.16      781.83683      60762.189      497.97437    
     25400  -105628.83      3.0796116     -105625.75      768.54555      61398.549      497.97437    
     25500  -105627.96      2.1817818     -105625.77      544.48383      68583.861      497.97437    
     25600  -105628.8       3.0332603     -105625.77      756.97816      65691.786      497.97437    
     25700  -105629.11      2.8984219     -105626.21      723.32798      61850.426      497.97437    
     25800  -105629.56      2.4747614     -105627.08      617.59958      54164.131      497.97437    
     25900  -105629.56      2.2308066     -105627.33      556.71841      53086.6        497.97437    
     26000  -105629.44      2.0719598     -105627.37      517.07672      59666.972      497.97437    
     26100  -105629.73      2.4490665     -105627.28      611.18719      54611.616      497.97437    
     26200  -105629.55      2.3841748     -105627.17      594.99286      53545.222      497.97437    
     26300  -105629.17      2.1313465     -105627.04      531.89723      59090.062      497.97437    
     26400  -105629.47      2.7017656     -105626.77      674.25059      58511.76       497.97437    
     26500  -105629.22      2.6820421     -105626.54      669.32842      54756.819      497.97437    
     26600  -105628.87      2.4042494     -105626.47      600.00266      57618.847      497.97437    
     26700  -105629.38      2.9764842     -105626.4       742.80917      63202.862      497.97437    
     26800  -105628.69      2.1090921     -105626.58      526.34343      60991.436      497.97437    
     26900  -105629.53      2.6602502     -105626.87      663.89004      62696.118      497.97437    
     27000  -105629.33      1.9811277     -105627.35      494.40873      54984.676      497.97437    
     27100  -105629.77      2.2216684     -105627.55      554.43788      52002.104      497.97437    
     27200  -105630.23      2.5577658     -105627.67      638.31411      48239.436      497.97437    
     27300  -105629.58      1.7928976     -105627.79      447.43417      54230.773      497.97437    
     27400  -105629.54      1.8616147     -105627.68      464.58317      52770.315      497.97437    
     27500  -105629.91      2.6653905     -105627.24      665.17286      52271.345      497.97437    
     27600  -105629.39      2.4672883     -105626.92      615.73461      59027.852      497.97437    
     27700  -105628.94      2.1289097     -105626.82      531.28909      62482.009      497.97437    
     27800  -105629.09      2.3827753     -105626.7       594.64362      58817.269      497.97437    
     27900  -105629.81      3.1459425     -105626.67      785.09905      55773.98       497.97437    
     28000  -105629.18      2.2501372     -105626.93      561.54255      63344.052      497.97437    
     28100  -105629.19      2.1118782     -105627.08      527.03874      63664.895      497.97437    
     28200  -105629.39      2.275943      -105627.11      567.98261      60170.978      497.97437    
     28300  -105629.61      2.5365946     -105627.08      633.03065      56146.485      497.97437    
     28400  -105629.31      2.2418808     -105627.07      559.48208      61421.135      497.97437    
     28500  -105629.18      2.1955217     -105626.98      547.91275      55635.758      497.97437    
     28600  -105629.7       3.0491701     -105626.65      760.94859      52626.982      497.97437    
     28700  -105628.84      2.3408534     -105626.5       584.18162      58050.447      497.97437    
     28800  -105629.11      2.7427719     -105626.37      684.48409      67291.428      497.97437    
     28900  -105628.97      2.6119793     -105626.36      651.84359      57015.515      497.97437    
     29000  -105628.88      2.4043295     -105626.47      600.02267      58584.217      497.97437    
     29100  -105629.54      2.8011574     -105626.74      699.05472      55990.32       497.97437    
     29200  -105629.25      2.0494726     -105627.2       511.46485      57062.931      497.97437    
     29300  -105630.01      2.5323313     -105627.48      631.96671      54895.897      497.97437    
     29400  -105629.37      1.7250736     -105627.65      430.50807      55629.874      497.97437    
     29500  -105629.86      2.294302      -105627.57      572.56429      53456.365      497.97437    
     29600  -105629.7       2.3000971     -105627.4       574.0105       53249.186      497.97437    
     29700  -105629.84      2.5946267     -105627.24      647.5131       55754.864      497.97437    
     29800  -105628.92      1.7903652     -105627.13      446.80219      61277.534      497.97437    
     29900  -105629.2       2.3555046     -105626.84      587.83795      61116.889      497.97437    
     30000  -105629.48      2.9883219     -105626.49      745.76336      56364.01       497.97437    
     30100  -105629.21      2.6884477     -105626.52      670.92698      57146.043      497.97437    
     30200  -105629.18      2.5411595     -105626.64      634.16985      56382.988      497.97437    
     30300  -105628.85      2.1074915     -105626.75      525.94399      59917.737      497.97437    
     30400  -105629.45      2.6796764     -105626.77      668.73802      60788.236      497.97437    
     30500  -105629.46      2.5532153     -105626.91      637.17848      56119.416      497.97437    
     30600  -105629.45      2.2860455     -105627.17      570.50379      55455.676      497.97437    
     30700  -105629.69      2.2675805     -105627.42      565.89569      53988.113      497.97437    
     30800  -105629.41      1.8110826     -105627.6       451.9724       59019.447      497.97437    
     30900  -105629.9       2.3149812     -105627.58      577.72498      52329.235      497.97437    
     31000  -105629.84      2.4333242     -105627.41      607.25855      53449.221      497.97437    
     31100  -105629.47      2.377593      -105627.09      593.35032      53995.484      497.97437    
     31200  -105628.9       2.3496055     -105626.55      586.36577      59302.522      497.97437    
     31300  -105629.07      2.8978647     -105626.17      723.18893      62355.92       497.97437    
     31400  -105628.69      2.5884721     -105626.1       645.97714      61902.962      497.97437    
     31500  -105628.96      2.7824009     -105626.18      694.37388      56029.782      497.97437    
     31600  -105629.3       2.8147746     -105626.48      702.45304      56110.569      497.97437    
     31700  -105629.1       2.1898775     -105626.91      546.50419      54040.172      497.97437    
     31800  -105629.43      2.3557428     -105627.07      587.89741      55509.856      497.97437    
     31900  -105629.82      2.6410766     -105627.18      659.10509      51744.369      497.97437    
     32000  -105629.58      2.2843158     -105627.3       570.07212      52950.685      497.97437    
     32100  -105629.45      2.1167982     -105627.33      528.26656      56617.069      497.97437    
     32200  -105629.32      2.073889      -105627.24      517.55817      59980.388      497.97437    
     32300  -105629.58      2.5622645     -105627.02      639.4368       52649.053      497.97437    
     32400  -105629.56      2.7061779     -105626.86      675.35173      54773.478      497.97437    
     32500  -105629.38      2.5261922     -105626.85      630.43462      57388.995      497.97437    
     32600  -105628.99      2.0720218     -105626.92      517.0922       63312.27       497.97437    
     32700  -105629.34      2.4791251     -105626.86      618.6886       56006.697      497.97437    
     32800  -105629.57      2.849012      -105626.72      710.99728      54781.695      497.97437    
     32900  -105628.99      2.274691      -105626.72      567.67017      55689.37       497.97437    
     33000  -105629.63      2.8957669     -105626.73      722.66542      57042.393      497.97437    
     33100  -105628.79      1.8972321     -105626.89      473.47181      59476.938      497.97437    
     33200  -105629.5       2.5835507     -105626.92      644.74896      56675.901      497.97437    
     33300  -105629.59      2.5805898     -105627.01      644.01004      54163.817      497.97437    
     33400  -105629.57      2.3391988     -105627.23      583.7687       55348.735      497.97437    
     33500  -105629.36      1.935949      -105627.43      483.13398      56088.008      497.97437    
     33600  -105629.8       2.3203022     -105627.48      579.05286      52151.248      497.97437    
     33700  -105629.83      2.3646534     -105627.47      590.12112      54940.585      497.97437    
     33800  -105629.42      2.0049379     -105627.42      500.35079      55055.489      497.97437    
     33900  -105629.65      2.5376003     -105627.11      633.28162      52365.286      497.97437    
     34000  -105629.25      2.5903649     -105626.66      646.44952      58266.283      497.97437    
     34100  -105628.68      2.3023648     -105626.37      574.57643      62131.154      497.97437    
     34200  -105629.21      3.0883883     -105626.12      770.73585      63108.17       497.97437    
     34300  -105629.12      2.8906925     -105626.23      721.39904      59313.967      497.97437    
     34400  -105628.65      2.1338392     -105626.51      532.5193       60961.053      497.97437    
     34500  -105629.56      2.8848145     -105626.68      719.93213      57274.947      497.97437    
     34600  -105629.61      2.6114487     -105627         651.71117      51699.656      497.97437    
     34700  -105629.37      2.1944902     -105627.17      547.65533      57622.703      497.97437    
     34800  -105629.49      2.3081188     -105627.18      576.0124       58658.204      497.97437    
     34900  -105629.62      2.4564592     -105627.16      613.03212      55367.801      497.97437    
     35000  -105629.38      2.242036      -105627.14      559.52082      56240.347      497.97437    
     35100  -105629.27      2.2302301     -105627.04      556.57454      58560.965      497.97437    
     35200  -105629.45      2.6373743     -105626.81      658.18114      57905.928      497.97437    
     35300  -105629.41      2.8401728     -105626.57      708.79138      56157.694      497.97437    
     35400  -105628.69      2.2598474     -105626.43      563.96582      57796.201      497.97437    
     35500  -105629         2.8382305     -105626.16      708.30666      60385.478      497.97437    
     35600  -105628.99      3.1346735     -105625.85      782.28675      57392.591      497.97437    
     35700  -105628.85      2.9248506     -105625.92      729.92352      62526.64       497.97437    
     35800  -105628.72      2.3792009     -105626.34      593.75158      58591.97       497.97437    
     35900  -105629.22      2.4712681     -105626.75      616.72782      55481.18       497.97437    
     36000  -105629.76      2.6775388     -105627.09      668.20456      52933.618      497.97437    
     36100  -105629.55      2.1988691     -105627.35      548.74811      55803.958      497.97437    
     36200  -105629.6       2.1723614     -105627.42      542.13288      52007.355      497.97437    
     36300  -105629.6       2.216017      -105627.38      553.02754      52458.32       497.97437    
     36400  -105629.65      2.3945051     -105627.26      597.57089      54372.179      497.97437    
     36500  -105629.34      2.2553577     -105627.08      562.84536      56742.878      497.97437    
     36600  -105629.62      2.8333114     -105626.79      707.07905      50878.08       497.97437    
     36700  -105629.11      2.6527794     -105626.46      662.02563      60352.638      497.97437    
     36800  -105628.53      2.4279313     -105626.1       605.91271      66280.228      497.97437    
     36900  -105628.67      3.2452371     -105625.43      809.87894      63370.318      497.97437    
     37000  -105628.34      3.068467      -105625.27      765.76431      60915.059      497.97437    
     37100  -105628.42      2.9054147     -105625.52      725.07311      65622.801      497.97437    
     37200  -105628.85      2.8953218     -105625.96      722.55434      64850.933      497.97437    
     37300  -105629.16      2.7886832     -105626.37      695.94169      62408.696      497.97437    
     37400  -105629.17      2.5148535     -105626.65      627.60495      54825.123      497.97437    
     37500  -105629.07      2.2431228     -105626.83      559.79204      55740.81       497.97437    
     37600  -105629.71      2.7697268     -105626.94      691.21094      54747.924      497.97437    
     37700  -105629.39      2.2140508     -105627.18      552.53686      55585.901      497.97437    
     37800  -105629.79      2.3999653     -105627.39      598.93353      53781.047      497.97437    
     37900  -105629.25      1.723037      -105627.53      429.99983      55657.783      497.97437    
     38000  -105630.06      2.6107122     -105627.45      651.52737      50008.534      497.97437    
     38100  -105629.67      2.3772538     -105627.29      593.26567      51859.534      497.97437    
     38200  -105629.27      2.2802139     -105626.99      569.04846      57736.366      497.97437    
     38300  -105628.99      2.5177482     -105626.48      628.32735      59496.688      497.97437    
     38400  -105628.97      2.8527507     -105626.12      711.93031      61070.68       497.97437    
     38500  -105628.59      2.5411396     -105626.05      634.16488      61286.276      497.97437    
     38600  -105629.08      2.9420839     -105626.14      734.22425      58489.006      497.97437    
     38700  -105629.16      2.6699507     -105626.49      666.31088      58532.981      497.97437    
     38800  -105629.52      2.5556118     -105626.97      637.77655      54836.497      497.97437    
     38900  -105629.18      1.9784642     -105627.2       493.74404      54848.27       497.97437    
     39000  -105629.75      2.5383747     -105627.21      633.47489      52103.062      497.97437    
     39100  -105629.7       2.4554428     -105627.24      612.77845      55811.195      497.97437    
     39200  -105629.49      2.1928077     -105627.3       547.23543      55653.299      497.97437    
     39300  -105629.42      2.157632      -105627.26      538.45702      52451.822      497.97437    
     39400  -105629.52      2.466122      -105627.06      615.44356      58785.794      497.97437    
     39500  -105629.22      2.503843      -105626.71      624.85717      63411.382      497.97437    
     39600  -105629.16      2.9779114     -105626.18      743.16532      63431.243      497.97437    
     39700  -105628.21      2.3010677     -105625.91      574.25272      61609.152      497.97437    
     39800  -105628.92      3.2218388     -105625.69      804.03967      58114.052      497.97437    
     39900  -105628.6       2.7726353     -105625.83      691.93678      60535.342      497.97437    
     40000  -105629.13      2.8345461     -105626.3       707.38719      58674.695      497.97437    
     40100  -105629.78      2.7171998     -105627.06      678.10234      54472.014      497.97437    
     40200  -105629.2       1.9335923     -105627.27      482.54584      60225.809      497.97437    
     40300  -105629.59      2.3707916     -105627.22      591.65298      58749.854      497.97437    
     40400  -105629.32      2.2080836     -105627.11      551.04767      59802.181      497.97437    
     40500  -105629.61      2.6798151     -105626.93      668.77264      55176.915      497.97437    
     40600  -105629.44      2.614289      -105626.83      652.41998      55699.714      497.97437    
     40700  -105629.12      2.2979492     -105626.82      573.47446      59978.473      497.97437    
     40800  -105629.14      2.363828      -105626.77      589.91513      59510.556      497.97437    
     40900  -105629.39      2.692605      -105626.7       671.96448      58044.956      497.97437    
     41000  -105629.39      2.6437814     -105626.75      659.78009      58619.088      497.97437    
     41100  -105629.41      2.4324111     -105626.98      607.03068      56421.65       497.97437    
     41200  -105629.51      2.1967682     -105627.31      548.22381      55707.899      497.97437    
     41300  -105629.53      1.9820294     -105627.55      494.63377      55286.303      497.97437    
     41400  -105629.96      2.316876      -105627.65      578.19782      54237.412      497.97437    
     41500  -105630.03      2.307655      -105627.72      575.89666      52279.422      497.97437    
     41600  -105629.64      1.8674519     -105627.77      466.03989      54863.359      497.97437    
     41700  -105629.55      1.9797602     -105627.57      494.06746      58486.14       497.97437    
     41800  -105629.47      2.4237821     -105627.05      604.87723      58338.158      497.97437    
     41900  -105629.5       2.8524593     -105626.65      711.8576       56842.439      497.97437    
     42000  -105628.96      2.3819051     -105626.58      594.42646      59721.454      497.97437    
     42100  -105628.94      2.4162542     -105626.53      602.99857      58038.059      497.97437    
     42200  -105629.54      3.0080569     -105626.53      750.68842      59172.087      497.97437    
     42300  -105628.84      2.084635      -105626.76      520.23993      56382.898      497.97437    
     42400  -105629.65      2.6554051     -105627         662.6809       54149.41       497.97437    
     42500  -105629.57      2.1798832     -105627.39      544.01         52967.168      497.97437    
     42600  -105629.85      2.174089      -105627.67      542.56402      54202.117      497.97437    
     42700  -105629.93      2.1083125     -105627.82      526.14888      53565.815      497.97437    
     42800  -105629.65      1.8416142     -105627.81      459.59186      55231.84       497.97437    
     42900  -105629.83      2.2277698     -105627.6       555.96056      53446.395      497.97437    
     43000  -105629.81      2.456203      -105627.35      612.96817      55704.849      497.97437    
     43100  -105629.48      2.2205214     -105627.26      554.15166      53362.081      497.97437    
     43200  -105629.34      2.1565674     -105627.18      538.19134      61671.454      497.97437    
     43300  -105629.42      2.3883574     -105627.04      596.03668      62073.457      497.97437    
     43400  -105629.24      2.3644956     -105626.88      590.08175      60750.025      497.97437    
     43500  -105629.76      3.0406784     -105626.72      758.82941      56032.716      497.97437    
     43600  -105629         2.1710696     -105626.83      541.81048      61595.994      497.97437    
     43700  -105629.06      2.1831964     -105626.88      544.83685      60946.735      497.97437    
     43800  -105629.57      2.7134056     -105626.85      677.15546      57384.24       497.97437    
     43900  -105629.32      2.3531832     -105626.97      587.25864      57507.118      497.97437    
     44000  -105629.64      2.4461944     -105627.19      610.47043      53824.682      497.97437    
     44100  -105629.57      2.0682521     -105627.5       516.15143      55060.418      497.97437    
     44200  -105629.72      2.0465216     -105627.67      510.72838      56678.989      497.97437    
     44300  -105629.91      2.1805845     -105627.73      544.18503      55675.299      497.97437    
     44400  -105629.7       2.0222583     -105627.68      504.67327      52806.013      497.97437    
     44500  -105629.81      2.4638008     -105627.34      614.86428      50639.098      497.97437    
     44600  -105629.13      2.2467116     -105626.88      560.68766      58348.127      497.97437    
     44700  -105629.06      2.5659014     -105626.5       640.34442      62211.967      497.97437    
     44800  -105629.08      2.7396627     -105626.34      683.70817      65885.096      497.97437    
     44900  -105628.86      2.477714      -105626.38      618.33644      63613.585      497.97437    
     45000  -105629.17      2.7079739     -105626.46      675.79994      60400.074      497.97437    
     45100  -105629.43      2.6899451     -105626.74      671.30069      58950.87       497.97437    
     45200  -105629.03      2.0131474     -105627.02      502.39954      58872.335      497.97437    
     45300  -105629.78      2.6059289     -105627.17      650.33365      56984.604      497.97437    
     45400  -105629.57      2.2458159     -105627.32      560.46412      57858.003      497.97437    
     45500  -105629.6       2.212861      -105627.39      552.23992      54664.91       497.97437    
     45600  -105629.6       2.2392749     -105627.36      558.83176      53057.516      497.97437    
     45700  -105629.72      2.4147911     -105627.3       602.63344      56390.557      497.97437    
     45800  -105629.44      2.1696627     -105627.27      541.4594       60001.067      497.97437    
     45900  -105629.44      2.262384      -105627.18      564.59885      55160.216      497.97437    
     46000  -105629.65      2.5959123     -105627.05      647.83391      54624.917      497.97437    
     46100  -105629.26      2.2841275     -105626.98      570.02514      59954.165      497.97437    
     46200  -105629.21      2.3529634     -105626.86      587.20377      63462.583      497.97437    
     46300  -105629.52      2.8930566     -105626.63      721.98904      56699.114      497.97437    
     46400  -105629.01      2.4651101     -105626.54      615.19102      60059.245      497.97437    
     46500  -105628.9       2.4218524     -105626.48      604.39567      63599.826      497.97437    
     46600  -105629.23      2.8721355     -105626.36      716.76798      63727.692      497.97437    
     46700  -105628.8       2.3936547     -105626.4       597.35866      58823.399      497.97437    
     46800  -105629.32      2.739316      -105626.58      683.62164      57010.071      497.97437    
     46900  -105629.17      2.2441627     -105626.93      560.05155      56101.414      497.97437    
     47000  -105629.83      2.5916218     -105627.24      646.76318      51703.945      497.97437    
     47100  -105629.66      2.100085      -105627.56      524.09563      50679.718      497.97437    
     47200  -105629.69      2.0258336     -105627.66      505.56552      53560.629      497.97437    
     47300  -105629.8       2.1882163     -105627.61      546.0896       53014.502      497.97437    
     47400  -105629.69      2.2382543     -105627.45      558.57705      55451.72       497.97437    
     47500  -105629.62      2.5151816     -105627.11      627.68684      58061.042      497.97437    
     47600  -105629         2.3280098     -105626.68      580.97638      62626.827      497.97437    
     47700  -105628.95      2.7609428     -105626.19      689.0188       63695.927      497.97437    
     47800  -105628.81      2.7382926     -105626.07      683.36623      67603.96       497.97437    
     47900  -105628.74      2.5967034     -105626.14      648.03134      64435.368      497.97437    
     48000  -105629.02      2.7334562     -105626.29      682.15927      59379.583      497.97437    
     48100  -105629.22      2.6551474     -105626.57      662.61659      59166.359      497.97437    
     48200  -105629.48      2.5446922     -105626.94      635.05146      56440.697      497.97437    
     48300  -105629.61      2.3520113     -105627.26      586.96616      54208.438      497.97437    
     48400  -105629.74      2.281833      -105627.46      569.45252      53884.213      497.97437    
     48500  -105629.52      2.0044627     -105627.52      500.2322       58382.298      497.97437    
     48600  -105629.64      2.2121934     -105627.43      552.07333      57956.068      497.97437    
     48700  -105629.53      2.2958404     -105627.23      572.94821      55577.381      497.97437    
     48800  -105629.46      2.537663      -105626.93      633.29726      54449.579      497.97437    
     48900  -105629.19      2.5941033     -105626.59      647.38247      59636.952      497.97437    
     49000  -105629.19      2.9875127     -105626.2       745.56142      59418.916      497.97437    
     49100  -105628.58      2.8118667     -105625.77      701.72733      61486.096      497.97437    
     49200  -105627.96      2.8750852     -105625.08      717.50409      68789.255      497.97437    
     49300  -105628.43      3.8086338     -105624.62      950.47978      68059.248      497.97437    
     49400  -105628.19      3.1280099     -105625.06      780.62379      66994.983      497.97437    
     49500  -105628.4       2.8577088     -105625.54      713.16766      64360.835      497.97437    
     49600  -105629.01      2.9750268     -105626.03      742.44546      62875.244      497.97437    
     49700  -105628.72      2.3253949     -105626.4       580.32379      59096.94       497.97437    
     49800  -105629.52      2.8421265     -105626.68      709.27896      55712.166      497.97437    
     49900  -105629.67      2.5869204     -105627.08      645.58991      54765.008      497.97437    
     50000  -105629.47      2.0708336     -105627.4       516.79568      54737.623      497.97437    
     50100  -105629.58      2.0892101     -105627.49      521.38169      53149.387      497.97437    
     50200  -105629.85      2.4065271     -105627.44      600.57109      53565.368      497.97437    
     50300  -105629.81      2.4299292     -105627.38      606.41131      58884.354      497.97437    
     50400  -105629.26      1.9930202     -105627.27      497.37662      59839.857      497.97437    
     50500  -105629.42      2.5531654     -105626.86      637.16605      54569.242      497.97437    
     50600  -105628.96      2.6076365     -105626.35      650.7598       58113.149      497.97437    
     50700  -105628.93      2.8033351     -105626.12      699.59821      58004.901      497.97437    
     50800  -105629.15      2.958642      -105626.19      738.35646      60279.603      497.97437    
     50900  -105628.68      2.259995      -105626.42      564.00266      60231.999      497.97437    
     51000  -105629.09      2.5545786     -105626.54      637.51871      61720.937      497.97437    
     51100  -105629.59      2.8633902     -105626.73      714.58549      59699.508      497.97437    
     51200  -105629.37      2.3257058     -105627.04      580.40138      60084.068      497.97437    
     51300  -105629.66      2.4721346     -105627.18      616.94405      55213.665      497.97437    
     51400  -105629.18      1.9352647     -105627.24      482.9632       59564.233      497.97437    
     51500  -105629.59      2.4504043     -105627.14      611.52104      55159.593      497.97437    
     51600  -105629.8       2.7276813     -105627.08      680.71809      54136.776      497.97437    
     51700  -105629.53      2.3803775     -105627.15      594.04522      53995.495      497.97437    
     51800  -105629.33      2.1080044     -105627.22      526.07199      60221.98       497.97437    
     51900  -105628.98      1.8308331     -105627.15      456.90134      66015.047      497.97437    
     52000  -105629.99      3.3580351     -105626.64      838.02872      55113.98       497.97437    
     52100  -105628.9       2.6527753     -105626.25      662.0246       60673.563      497.97437    
     52200  -105628.7       2.6145519     -105626.09      652.48562      63002.317      497.97437    
     52300  -105628.8       2.8746188     -105625.92      717.38772      62089.419      497.97437    
     52400  -105628.62      2.7016063     -105625.92      674.21083      62305.973      497.97437    
     52500  -105628.93      2.7328114     -105626.2       681.99835      59707.064      497.97437    
     52600  -105629.35      2.6143578     -105626.74      652.43716      60075.829      497.97437    
     52700  -105629.65      2.4448149     -105627.2       610.12616      56087.845      497.97437    
     52800  -105629.56      2.099908      -105627.46      524.05147      59713.102      497.97437    
     52900  -105629.57      2.0445133     -105627.53      510.22719      54829.374      497.97437    
     53000  -105629.74      2.294545      -105627.45      572.62493      50774.894      497.97437    
     53100  -105630         2.7185716     -105627.28      678.44468      48870.283      497.97437    
     53200  -105629.27      2.0974075     -105627.17      523.42744      58987.786      497.97437    
     53300  -105629.06      2.1263899     -105626.93      530.66028      61422.406      497.97437    
     53400  -105629.24      2.8544043     -105626.38      712.34299      63984.379      497.97437    
     53500  -105628.9       2.7538465     -105626.15      687.24785      57857.708      497.97437    
     53600  -105628.93      2.751125      -105626.18      686.56868      65565.905      497.97437    
     53700  -105628.82      2.4829665     -105626.33      619.64725      58443.388      497.97437    
     53800  -105629.3       2.7457719     -105626.55      685.23276      59815.275      497.97437    
     53900  -105629.41      2.5576158     -105626.85      638.27667      61642.489      497.97437    
     54000  -105629.32      2.2580205     -105627.06      563.5099       62836.673      497.97437    
     54100  -105629.34      2.2383215     -105627.11      558.59383      61220.03       497.97437    
     54200  -105629.44      2.3634444     -105627.07      589.81941      57636.02       497.97437    
     54300  -105629.63      2.5870409     -105627.04      645.61999      56536.697      497.97437    
     54400  -105629.49      2.4160592     -105627.07      602.94991      57631.452      497.97437    
     54500  -105629.45      2.311962      -105627.14      576.9715       63815.359      497.97437    
     54600  -105628.95      1.8085124     -105627.14      451.331        61465.134      497.97437    
     54700  -105629.95      3.1483708     -105626.8       785.70506      54977.096      497.97437    
     54800  -105629.1       2.7057518     -105626.39      675.24537      60490.187      497.97437    
     54900  -105628.7       2.4976792     -105626.2       623.31894      69341.061      497.97437    
     55000  -105628.49      2.5520593     -105625.94      636.88999      66240.925      497.97437    
     55100  -105628.81      3.1215817     -105625.69      779.01957      64010.396      497.97437    
     55200  -105628.64      2.9050378     -105625.74      724.97905      67358.335      497.97437    
     55300  -105628.68      2.4797341     -105626.2       618.84058      61352.728      497.97437    
     55400  -105629.76      2.9323562     -105626.83      731.79661      57253.032      497.97437    
     55500  -105629.03      1.827816      -105627.2       456.14839      58955.691      497.97437    
     55600  -105629.78      2.5842416     -105627.2       644.92138      58665.296      497.97437    
     55700  -105629.57      2.3349981     -105627.23      582.72038      56158.121      497.97437    
     55800  -105629.35      2.1081445     -105627.25      526.10695      54674.136      497.97437    
     55900  -105629.79      2.6570536     -105627.13      663.0923       56000.166      497.97437    
     56000  -105628.87      1.8519108     -105627.02      462.16146      65054.305      497.97437    
     56100  -105629.39      2.7157019     -105626.67      677.72852      58862.007      497.97437    
     56200  -105629.32      3.055267      -105626.26      762.47013      56269.815      497.97437    
     56300  -105628.62      2.3673895     -105626.25      590.80395      61642.466      497.97437    
     56400  -105629.15      2.8503934     -105626.3       711.34203      64920.015      497.97437    
     56500  -105628.92      2.3314166     -105626.59      581.82656      61293.722      497.97437    
     56600  -105629.59      2.4551016     -105627.13      612.69332      55787.521      497.97437    
     56700  -105629.85      2.2215778     -105627.63      554.41529      53979.823      497.97437    
     56800  -105629.61      1.8659555     -105627.75      465.66646      54511.089      497.97437    
     56900  -105630         2.3494136     -105627.66      586.3179       50880.677      497.97437    
     57000  -105629.65      2.1395539     -105627.51      533.94545      50125.193      497.97437    
     57100  -105629.41      2.1237592     -105627.29      530.00374      54467.433      497.97437    
     57200  -105629.39      2.4498105     -105626.95      611.37288      55489.311      497.97437    
     57300  -105629.43      2.7390132     -105626.69      683.54608      58938.999      497.97437    
     57400  -105629.04      2.4136226     -105626.63      602.34185      62823.248      497.97437    
     57500  -105628.81      2.2118738     -105626.6       551.99356      63908.088      497.97437    
     57600  -105629.38      2.8645091     -105626.52      714.86475      56344.862      497.97437    
     57700  -105629.34      2.6968326     -105626.64      673.01951      55446.184      497.97437    
     57800  -105629.5       2.3234663     -105627.18      579.8425       56333.793      497.97437    
     57900  -105629.3       1.6508678     -105627.65      411.98932      57510.263      497.97437    
     58000  -105630.07      2.3653094     -105627.7       590.28485      49571.226      497.97437    
     58100  -105630.21      2.5000875     -105627.71      623.91996      51255.161      497.97437    
     58200  -105629.6       1.8765989     -105627.73      468.32262      57966.955      497.97437    
     58300  -105629.47      1.9136607     -105627.55      477.57173      57412.953      497.97437    
     58400  -105629.63      2.4985792     -105627.14      623.54353      54614.516      497.97437    
     58500  -105629.25      2.3888106     -105626.87      596.14978      57906.392      497.97437    
     58600  -105629.22      2.4773516     -105626.75      618.24601      62420.291      497.97437    
     58700  -105629.41      2.6997307     -105626.71      673.74277      59062.239      497.97437    
     58800  -105629.19      2.385068      -105626.81      595.21577      57427.279      497.97437    
     58900  -105628.93      2.0606733     -105626.87      514.26008      58089.241      497.97437    
     59000  -105629.57      2.7499702     -105626.82      686.2805       56096.162      497.97437    
     59100  -105629.56      2.6431178     -105626.92      659.6145       58450.503      497.97437    
     59200  -105629.35      2.0294178     -105627.32      506.45998      57716.133      497.97437    
     59300  -105629.55      1.9039435     -105627.65      475.14672      55342.935      497.97437    
     59400  -105630.15      2.3486229     -105627.8       586.12056      52612.852      497.97437    
     59500  -105629.87      1.9860033     -105627.89      495.62549      52891.576      497.97437    
     59600  -105629.92      2.1115314     -105627.81      526.95219      55329.72       497.97437    
     59700  -105629.43      1.9385369     -105627.49      483.7798       55222.963      497.97437    
     59800  -105629.68      2.7426479     -105626.93      684.45314      59284.466      497.97437    
     59900  -105628.92      2.2065447     -105626.71      550.66364      62844.702      497.97437    
     60000  -105629.13      2.5452136     -105626.59      635.1816       64311.095      497.97437    
     60100  -105629.25      2.6977977     -105626.55      673.26037      60085.109      497.97437    
     60200  -105629.03      2.3747306     -105626.65      592.63598      58588.142      497.97437    
     60300  -105629.52      2.6904561     -105626.83      671.42821      59419.098      497.97437    
     60400  -105629.3       2.1507255     -105627.15      536.73343      58802.39       497.97437    
     60500  -105629.68      2.2580043     -105627.42      563.50586      55874.988      497.97437    
     60600  -105629.72      2.081013      -105627.64      519.33604      53100.83       497.97437    
     60700  -105629.9       2.1626532     -105627.74      539.7101       55467.487      497.97437    
     60800  -105629.8       2.0546957     -105627.74      512.7683       53535.337      497.97437    
     60900  -105629.78      2.2747871     -105627.51      567.69416      51859.513      497.97437    
     61000  -105629.72      2.7599818     -105626.96      688.77899      55433.847      497.97437    
     61100  -105628.94      2.2964601     -105626.64      573.10284      64699.682      497.97437    
     61200  -105628.61      2.2175519     -105626.39      553.41059      69672.522      497.97437    
     61300  -105628.98      2.8859274     -105626.1       720.20988      62622.04       497.97437    
     61400  -105628.84      2.8142862     -105626.03      702.33115      66193.792      497.97437    
     61500  -105629.16      2.916118      -105626.25      727.74421      62170.872      497.97437    
     61600  -105629.17      2.4407359     -105626.73      609.10821      60942.426      497.97437    
     61700  -105629.14      2.1104799     -105627.03      526.68978      59907.627      497.97437    
     61800  -105629.76      2.6612906     -105627.1       664.14968      60289.414      497.97437    
     61900  -105629.67      2.437828      -105627.23      608.38252      55511          497.97437    
     62000  -105629.1       1.8151292     -105627.29      452.98228      56857.044      497.97437    
     62100  -105630.04      2.8867853     -105627.16      720.42396      57801.342      497.97437    
     62200  -105629.06      1.9210212     -105627.14      479.4086       60687.312      497.97437    
     62300  -105629.6       2.6416155     -105626.96      659.23957      62517.17       497.97437    
     62400  -105629.05      2.4483822     -105626.6       611.01641      61414.018      497.97437    
     62500  -105628.86      2.7975925     -105626.07      698.16507      61073.988      497.97437    
     62600  -105628.57      2.9639821     -105625.6       739.68913      65515.923      497.97437    
     62700  -105628.6       3.0300755     -105625.57      756.18336      66878.489      497.97437    
     62800  -105628.11      2.3564257     -105625.75      588.06783      63513.637      497.97437    
     62900  -105629.49      3.4828099     -105626.01      869.16741      59110.28       497.97437    
     63000  -105628.67      2.2403615     -105626.43      559.10293      62214.662      497.97437    
     63100  -105629.39      2.8148788     -105626.58      702.47903      59215.891      497.97437    
     63200  -105628.98      2.2207454     -105626.76      554.20754      56465.391      497.97437    
     63300  -105629.76      2.8508079     -105626.91      711.44548      57630.09       497.97437    
     63400  -105629.08      1.9288326     -105627.15      481.35801      55622.992      497.97437    
     63500  -105630.01      2.7295861     -105627.28      681.19345      53318.305      497.97437    
     63600  -105629.31      1.8287915     -105627.48      456.39184      54765.669      497.97437    
     63700  -105629.89      2.3474623     -105627.55      585.83092      53531.7        497.97437    
     63800  -105629.46      1.9028538     -105627.56      474.87477      55324.852      497.97437    
     63900  -105629.82      2.4961338     -105627.32      622.93328      50493.331      497.97437    
     64000  -105629.47      2.6085534     -105626.86      650.98863      54796.565      497.97437    
     64100  -105628.78      2.196274      -105626.59      548.10048      61041.514      497.97437    
     64200  -105628.94      2.6818848     -105626.26      669.28914      64370.95       497.97437    
     64300  -105628.98      2.8705005     -105626.11      716.35994      64252.773      497.97437    
     64400  -105628.91      2.699899      -105626.21      673.78476      54864.335      497.97437    
     64500  -105628.9       2.4152651     -105626.49      602.75173      61156.74       497.97437    
     64600  -105629.33      2.5141242     -105626.82      627.42295      59354.459      497.97437    
     64700  -105629.74      2.4729721     -105627.27      617.15304      53674.58       497.97437    
     64800  -105629.49      1.9598854     -105627.53      489.10753      55644.455      497.97437    
     64900  -105629.74      2.2140053     -105627.53      552.5255       52758.604      497.97437    
     65000  -105629.55      2.1030894     -105627.45      524.84541      56297.004      497.97437    
     65100  -105629.69      2.3970048     -105627.29      598.19471      55400.926      497.97437    
     65200  -105629.21      2.1100075     -105627.1       526.57189      61380.585      497.97437    
     65300  -105629.76      2.9454152     -105626.81      735.05561      52500.904      497.97437    
     65400  -105628.83      2.1325344     -105626.7       532.19369      60219.569      497.97437    
     65500  -105629.34      2.7821296     -105626.56      694.30618      64417.161      497.97437    
     65600  -105628.78      2.3337394     -105626.45      582.40625      64862.6        497.97437    
     65700  -105629.33      3.100942      -105626.23      773.86876      60502.463      497.97437    
     65800  -105629.02      2.8645649     -105626.16      714.87866      60139.888      497.97437    
     65900  -105628.55      2.1990298     -105626.35      548.78823      63995.56       497.97437    
     66000  -105629.24      2.6767164     -105626.56      667.99932      62885.351      497.97437    
     66100  -105629.56      2.5807673     -105626.98      644.05434      54995.454      497.97437    
     66200  -105629.5       2.1635659     -105627.34      539.93787      55444.694      497.97437    
     66300  -105629.76      2.2304031     -105627.53      556.61772      51886.423      497.97437    
     66400  -105629.8       2.2107678     -105627.59      551.71755      52985.876      497.97437    
     66500  -105629.65      2.1057718     -105627.55      525.51482      55783.717      497.97437    
     66600  -105629.53      2.158754      -105627.38      538.73702      56245.956      497.97437    
     66700  -105629.52      2.5999033     -105626.92      648.82991      57071.492      497.97437    
     66800  -105629.15      2.6655949     -105626.49      665.22386      65912.75       497.97437    
     66900  -105628.43      2.1230174     -105626.31      529.81861      66037.074      497.97437    
     67000  -105629.52      3.2988292     -105626.22      823.25334      61973.404      497.97437    
     67100  -105628.72      2.2859132     -105626.43      570.47078      60782.215      497.97437    
     67200  -105629.21      2.6688193     -105626.54      666.02853      65771.498      497.97437    
     67300  -105629.42      2.6643564     -105626.76      664.91478      54431.298      497.97437    
     67400  -105629.47      2.3847769     -105627.08      595.14313      59755.982      497.97437    
     67500  -105629.17      1.9103204     -105627.26      476.73813      59216.551      497.97437    
     67600  -105629.93      2.6601032     -105627.27      663.85334      56976.84       497.97437    
     67700  -105629.43      2.1075872     -105627.32      525.96788      55704.774      497.97437    
     67800  -105629.75      2.4572864     -105627.3       613.23854      56902.763      497.97437    
     67900  -105629.05      1.872699      -105627.18      467.34936      59271.668      497.97437    
     68000  -105629.99      3.4887077     -105626.5       870.63926      56150.216      497.97437    
     68100  -105628.64      2.4631092     -105626.18      614.69168      63430.835      497.97437    
     68200  -105628.3       2.2065195     -105626.1       550.65735      68329.772      497.97437    
     68300  -105628.4       2.5053304     -105625.9       625.22836      63379.813      497.97437    
     68400  -105629.37      3.5850421     -105625.79      894.6804       58271.296      497.97437    
     68500  -105629.14      2.7939919     -105626.34      697.26652      59780.815      497.97437    
     68600  -105629.06      2.2210413     -105626.84      554.2814       61542.108      497.97437    
     68700  -105629.22      2.2516728     -105626.97      561.92577      56422.327      497.97437    
     68800  -105629.8       2.7801232     -105627.02      693.80545      53910.243      497.97437    
     68900  -105629.47      2.2765008     -105627.2       568.12183      56921.691      497.97437    
     69000  -105629.5       2.1780752     -105627.32      543.5588       55772.815      497.97437    
     69100  -105629.79      2.4202231     -105627.37      603.98906      53225.738      497.97437    
     69200  -105629.46      2.0355243     -105627.42      507.98391      58120.207      497.97437    
     69300  -105629.57      2.2532522     -105627.32      562.31993      55291.671      497.97437    
     69400  -105630.02      3.0621013     -105626.96      764.17571      51336.948      497.97437    
     69500  -105628.88      2.1401388     -105626.74      534.09142      58903.181      497.97437    
     69600  -105628.91      2.4696373     -105626.44      616.32082      66487.436      497.97437    
     69700  -105628.86      2.7995979     -105626.06      698.66554      63658.34       497.97437    
     69800  -105629.31      3.3548403     -105625.96      837.23141      62370.611      497.97437    
     69900  -105628.82      2.4539198     -105626.37      612.39838      70795.499      497.97437    
     70000  -105628.54      1.928567      -105626.61      481.29172      70891.736      497.97437    
     70100  -105629.38      2.7304933     -105626.65      681.41985      57117.962      497.97437    
     70200  -105629.86      3.0585165     -105626.8       763.28108      54110.045      497.97437    
     70300  -105629.43      2.3251234     -105627.1       580.25605      61180.71       497.97437    
     70400  -105629.13      1.9271677     -105627.2       480.94253      57311.868      497.97437    
     70500  -105629.54      2.4258993     -105627.12      605.4056       53706.219      497.97437    
     70600  -105629.5       2.4773397     -105627.02      618.24304      55112.204      497.97437    
     70700  -105629.69      2.7200686     -105626.97      678.81827      54254.071      497.97437    
     70800  -105629.23      2.1884836     -105627.04      546.15633      56562.325      497.97437    
     70900  -105629.3       2.1878419     -105627.11      545.99618      55702.7        497.97437    
     71000  -105629.71      2.5527772     -105627.15      637.06916      55498.127      497.97437    
     71100  -105629.37      2.1052255     -105627.26      525.3785       57158.25       497.97437    
     71200  -105629.8       2.4929431     -105627.31      622.137        51867.463      497.97437    
     71300  -105629.5       2.1395565     -105627.36      533.94611      53823.843      497.97437    
     71400  -105629.4       2.0884416     -105627.31      521.18993      57060.841      497.97437    
     71500  -105629.91      2.8309394     -105627.08      706.48711      53952.654      497.97437    
     71600  -105629.25      2.3220235     -105626.93      579.48244      55555.081      497.97437    
     71700  -105628.9       2.1359806     -105626.76      533.0537       59031.151      497.97437    
     71800  -105629.29      2.9353174     -105626.36      732.53561      59584.936      497.97437    
     71900  -105628.82      2.7104303     -105626.11      676.41294      61594.482      497.97437    
     72000  -105628.82      2.7527224     -105626.07      686.96733      57854.889      497.97437    
     72100  -105629.21      2.9190559     -105626.29      728.47739      58427.828      497.97437    
     72200  -105629.2       2.2288184     -105626.97      556.22224      58982.804      497.97437    
     72300  -105629.65      2.3026367     -105627.35      574.64427      52674.191      497.97437    
     72400  -105629.62      2.1664057     -105627.46      540.64658      49571.356      497.97437    
     72500  -105630.12      2.6513828     -105627.47      661.67711      49375.11       497.97437    
     72600  -105629.52      1.9871158     -105627.54      495.90312      55916.088      497.97437    
     72700  -105629.34      1.8783651     -105627.46      468.76338      57036.246      497.97437    
     72800  -105629.66      2.5699238     -105627.09      641.34825      54582.555      497.97437    
     72900  -105629.41      2.6849713     -105626.72      670.05942      56832.273      497.97437    
     73000  -105629.43      2.8388055     -105626.59      708.45016      60238.812      497.97437    
     73100  -105628.59      1.9668064     -105626.63      490.83474      63472.887      497.97437    
     73200  -105629.02      2.4872526     -105626.54      620.71688      58827.598      497.97437    
     73300  -105629.58      3.0756442     -105626.5       767.55546      56847.556      497.97437    
     73400  -105629.59      2.7823384     -105626.8       694.35829      58918.456      497.97437    
     73500  -105628.99      1.9349029     -105627.05      482.87291      62011.948      497.97437    
     73600  -105628.94      1.9389642     -105627         483.88644      58060.532      497.97437    
     73700  -105629.76      2.9114219     -105626.85      726.57226      52913.074      497.97437    
     73800  -105629.86      2.9227122     -105626.94      729.38985      47610.155      497.97437    
     73900  -105629.48      2.1856148     -105627.3       545.44038      57431.912      497.97437    
     74000  -105628.98      1.5492988     -105627.43      386.64184      56982.413      497.97437    
[...]
    181900  -105629.46      2.2868177     -105627.17      570.69651      62549.77       497.97437    
    182000  -105629.36      2.1955071     -105627.17      547.9091       56100.307      497.97437    
    182100  -105629.41      2.3460845     -105627.06      585.48708      53556.712      497.97437    
    182200  -105629.83      2.9867498     -105626.84      745.37103      55377.275      497.97437    
    182300  -105628.84      2.0589071     -105626.79      513.8193       63396.359      497.97437    
    182400  -105628.91      2.3233518     -105626.58      579.81393      60154.069      497.97437    
    182500  -105629.36      3.2060548     -105626.16      800.10063      55869.883      497.97437    
    182600  -105628.75      2.7114209     -105626.04      676.66016      64111.423      497.97437    
    182700  -105628.97      2.7960698     -105626.17      697.78508      62704.829      497.97437    
    182800  -105628.88      2.3019903     -105626.57      574.48296      57080.533      497.97437    
    182900  -105629.51      2.4892353     -105627.02      621.2117       56779.393      497.97437    
    183000  -105629.67      2.3255762     -105627.34      580.36905      54467.229      497.97437    
    183100  -105629.96      2.4610611     -105627.5       614.18056      52731.463      497.97437    
    183200  -105629.28      1.7439961     -105627.54      435.23037      52536.327      497.97437    
    183300  -105629.84      2.4570932     -105627.38      613.19034      54585.706      497.97437    
    183400  -105629.31      2.1097678     -105627.2       526.51207      56900.275      497.97437    
    183500  -105629.62      2.6604795     -105626.96      663.94725      51733.222      497.97437    
    183600  -105629.28      2.4627708     -105626.82      614.60723      54519.993      497.97437    
    183700  -105629.26      2.5179708     -105626.74      628.38289      58200.576      497.97437    
    183800  -105629.12      2.4221575     -105626.7       604.4718       60834.657      497.97437    
    183900  -105628.94      2.2972368     -105626.64      573.29668      60342.556      497.97437    
    184000  -105629.18      2.8077859     -105626.37      700.70893      56606.727      497.97437    
    184100  -105629.36      3.2222641     -105626.14      804.14581      58946.519      497.97437    
    184200  -105629.05      2.6952759     -105626.35      672.63102      59559.49       497.97437    
    184300  -105628.56      1.8798179     -105626.68      469.12595      59959.788      497.97437    
    184400  -105629.21      2.4374031     -105626.77      608.27649      60270.002      497.97437    
    184500  -105629.78      2.841519      -105626.94      709.12733      57419.667      497.97437    
    184600  -105629.47      2.1921821     -105627.28      547.07932      55522.217      497.97437    
    184700  -105629.82      2.2687834     -105627.55      566.19587      56481.696      497.97437    
    184800  -105629.42      1.7555215     -105627.67      438.10663      54253.562      497.97437    
    184900  -105630.14      2.5725458     -105627.57      642.00261      51247.777      497.97437    
    185000  -105629.45      2.033894      -105627.41      507.57706      55914.18       497.97437    
    185100  -105629.68      2.772142      -105626.91      691.81368      56752.666      497.97437    
    185200  -105629.03      2.7721688     -105626.26      691.82036      63431.041      497.97437    
    185300  -105628.35      2.2669028     -105626.09      565.72655      65988.34       497.97437    
    185400  -105628.54      2.5591272     -105625.98      638.65386      68878.348      497.97437    
    185500  -105628.98      2.9786839     -105626         743.35812      63786.036      497.97437    
    185600  -105629.41      3.0496559     -105626.36      761.06983      57604.27       497.97437    
    185700  -105629.25      2.3859968     -105626.87      595.44756      58344.981      497.97437    
    185800  -105629.31      2.2504939     -105627.06      561.63157      60095.894      497.97437    
    185900  -105629.18      2.0889344     -105627.09      521.3129       61132.651      497.97437    
    186000  -105630.06      3.0244115     -105627.03      754.76985      54480.223      497.97437    
    186100  -105629.31      2.1253224     -105627.19      530.39385      53625.335      497.97437    
    186200  -105629.56      2.2775719     -105627.29      568.38913      57111.383      497.97437    
    186300  -105629.18      1.8586312     -105627.32      463.83861      58645.229      497.97437    
    186400  -105629.81      2.7070263     -105627.1       675.56345      56078.025      497.97437    
    186500  -105629.46      2.809264      -105626.66      701.07781      54447.858      497.97437    
    186600  -105628.75      2.3456526     -105626.4       585.3793       58800.165      497.97437    
    186700  -105628.88      2.78921       -105626.09      696.07314      64177.279      497.97437    
    186800  -105628.65      2.7484222     -105625.9       685.89419      66833.408      497.97437    
    186900  -105628.99      3.0666015     -105625.93      765.29875      60719.929      497.97437    
    187000  -105628.89      2.4615673     -105626.43      614.30689      59798.396      497.97437    
    187100  -105629.38      2.3978709     -105626.98      598.41085      56957.204      497.97437    
    187200  -105629.81      2.5455287     -105627.26      635.26023      56535.547      497.97437    
    187300  -105629.48      2.0690717     -105627.41      516.35599      53671.151      497.97437    
    187400  -105629.46      2.058308      -105627.4       513.66981      51080.487      497.97437    
    187500  -105629.84      2.598061      -105627.24      648.37014      49590.389      497.97437    
    187600  -105629.53      2.4354376     -105627.1       607.78597      54986.4        497.97437    
    187700  -105629.02      2.0787022     -105626.94      518.75937      58694.04       497.97437    
    187800  -105629.07      2.5205803     -105626.55      629.03413      60554.596      497.97437    
    187900  -105629.35      3.2709555     -105626.08      816.2972       62581.025      497.97437    
    188000  -105628.6       2.5221289     -105626.08      629.4206       65701.887      497.97437    
    188100  -105628.66      2.5067234     -105626.16      625.576        63545.124      497.97437    
    188200  -105628.96      2.6742777     -105626.28      667.39072      61672.071      497.97437    
    188300  -105629.44      2.9348367     -105626.51      732.41564      61315.589      497.97437    
    188400  -105629.46      2.6611489     -105626.8       664.11431      58374.456      497.97437    
    188500  -105629.14      2.1861401     -105626.95      545.57148      56282.772      497.97437    
    188600  -105629.33      2.3671287     -105626.96      590.73886      58032.374      497.97437    
    188700  -105629.04      2.1210491     -105626.92      529.32741      60390.05       497.97437    
    188800  -105629.79      3.0149164     -105626.77      752.40026      54423.182      497.97437    
    188900  -105629.3       2.4352966     -105626.86      607.75077      57053.678      497.97437    
    189000  -105629.38      2.3093872     -105627.07      576.32893      56482.749      497.97437    
    189100  -105629.23      1.9395169     -105627.29      484.02438      60172.059      497.97437    
    189200  -105629.76      2.3084779     -105627.45      576.102        56186.359      497.97437    
    189300  -105629.78      2.1497328     -105627.63      536.48569      48352.885      497.97437    
    189400  -105630.07      2.2285954     -105627.84      556.16658      50297.416      497.97437    
    189500  -105629.84      1.7917035     -105628.05      447.13618      46189.836      497.97437    
    189600  -105629.9       1.8221681     -105628.07      454.73891      47750.665      497.97437    
    189700  -105629.95      2.1441732     -105627.81      535.09824      53493.177      497.97437    
    189800  -105629.63      2.2836594     -105627.35      569.90832      55462.145      497.97437    
    189900  -105629.56      2.5681052     -105626.99      640.89441      54335.754      497.97437    
    190000  -105628.94      2.0898521     -105626.85      521.54192      57320.554      497.97437    
    190100  -105629.11      2.4341409     -105626.68      607.46237      59952.856      497.97437    
    190200  -105629.51      2.984674      -105626.53      744.853        60449.768      497.97437    
    190300  -105629.09      2.4399663     -105626.65      608.91616      62445.373      497.97437    
    190400  -105628.95      2.1529813     -105626.8       537.2964       57482.31       497.97437    
    190500  -105629.44      2.504245      -105626.94      624.95749      60268.764      497.97437    
    190600  -105629.53      2.2781264     -105627.25      568.52752      56005.395      497.97437    
    190700  -105629.96      2.1735982     -105627.79      542.44153      54296.911      497.97437    
    190800  -105629.74      1.7159876     -105628.03      428.24057      51533.479      497.97437    
    190900  -105630.28      2.2703336     -105628.01      566.58274      48553.57       497.97437    
    191000  -105629.65      1.7507301     -105627.9       436.91088      52297.306      497.97437    
    191100  -105630.01      2.4333709     -105627.58      607.27021      49679.251      497.97437    
    191200  -105629.39      2.0636175     -105627.33      514.99482      54890.619      497.97437    
    191300  -105629.56      2.4285235     -105627.13      606.0605       60226.536      497.97437    
    191400  -105629.08      2.0639024     -105627.01      515.06592      61485.329      497.97437    
    191500  -105629.4       2.5465069     -105626.86      635.50434      56214.531      497.97437    
    191600  -105629.46      2.6890281     -105626.77      671.07182      53564.188      497.97437    
    191700  -105629.23      2.410001      -105626.82      601.43803      57982.129      497.97437    
    191800  -105629.44      2.5228402     -105626.91      629.5981       60226.406      497.97437    
    191900  -105628.93      1.8576936     -105627.08      463.60462      59809.463      497.97437    
    192000  -105629.69      2.5099091     -105627.18      626.37102      54277.254      497.97437    
    192100  -105629.77      2.3258167     -105627.45      580.42906      55539.052      497.97437    
    192200  -105629.97      2.1906671     -105627.78      546.70123      49494.983      497.97437    
    192300  -105629.78      1.7867834     -105628         445.90831      51045.009      497.97437    
    192400  -105629.71      1.7470288     -105627.97      435.98719      53596.398      497.97437    
    192500  -105630.19      2.5459323     -105627.65      635.36094      49113.782      497.97437    
    192600  -105629.91      2.6002161     -105627.31      648.90798      51528.633      497.97437    
    192700  -105628.7       1.5430473     -105627.16      385.08171      58980.563      497.97437    
    192800  -105629.59      2.7423668     -105626.85      684.38301      56844.24       497.97437    
    192900  -105629.39      2.6477412     -105626.75      660.7683       54426.62       497.97437    
    193000  -105629.35      2.545629      -105626.8       635.28527      57753.482      497.97437    
    193100  -105628.96      2.0923617     -105626.87      522.16822      61567.497      497.97437    
    193200  -105629.14      2.3091869     -105626.83      576.27895      62071.708      497.97437    
    193300  -105629.76      3.0229097     -105626.73      754.39507      55841.803      497.97437    
    193400  -105629.05      2.1649005     -105626.88      540.27094      57369.934      497.97437    
    193500  -105629.31      2.2176075     -105627.09      553.42445      52864.614      497.97437    
    193600  -105629.78      2.3482401     -105627.43      586.02502      52415.515      497.97437    
    193700  -105629.84      2.0348362     -105627.81      507.81219      53661.06       497.97437    
    193800  -105630.01      2.0238377     -105627.99      505.06742      53109.982      497.97437    
    193900  -105629.91      1.9198976     -105627.99      479.12821      51768.934      497.97437    
    194000  -105629.7       1.9145475     -105627.79      477.79303      51754.278      497.97437    
    194100  -105629.78      2.4345118     -105627.35      607.55494      55862.689      497.97437    
    194200  -105629.09      2.0341469     -105627.05      507.64017      53314.691      497.97437    
    194300  -105629.6       2.7079758     -105626.89      675.80041      51295.043      497.97437    
    194400  -105629.43      2.5408163     -105626.89      634.0842       54761.838      497.97437    
    194500  -105628.93      1.9864452     -105626.95      495.73578      64178.52       497.97437    
    194600  -105629.48      2.6236189     -105626.85      654.74835      60553.652      497.97437    
    194700  -105628.98      2.1992557     -105626.78      548.84459      58066.218      497.97437    
    194800  -105629.67      3.0425488     -105626.62      759.29618      55192.599      497.97437    
    194900  -105629         2.3415914     -105626.66      584.36579      59055.362      497.97437    
    195000  -105628.8       2.0471146     -105626.75      510.87639      63067.75       497.97437    
    195100  -105629.34      2.5938019     -105626.75      647.30726      58901.594      497.97437    
    195200  -105629.5       2.6762474     -105626.83      667.88229      56166.014      497.97437    
    195300  -105629.83      2.6473825     -105627.18      660.67877      55690.189      497.97437    
    195400  -105629.06      1.5346661     -105627.52      382.99013      57186.36       497.97437    
    195500  -105629.75      2.2234766     -105627.53      554.88915      52358.856      497.97437    
    195600  -105629.92      2.50577       -105627.42      625.33809      50613.786      497.97437    
    195700  -105629.78      2.4476304     -105627.33      610.8288       53184.956      497.97437    
    195800  -105629.19      1.9860882     -105627.2       495.64668      55240.398      497.97437    
    195900  -105629.38      2.6468611     -105626.73      660.54867      56876.263      497.97437    
    196000  -105628.96      2.7407922     -105626.22      683.99005      62774.022      497.97437    
    196100  -105628.63      2.5463457     -105626.08      635.46412      62190.852      497.97437    
    196200  -105629.01      2.9192214     -105626.09      728.5187       57733.833      497.97437    
    196300  -105628.99      2.6398565     -105626.35      658.8006       56995.296      497.97437    
    196400  -105629.2       2.5362357     -105626.66      632.94108      60165.775      497.97437    
    196500  -105629.49      2.5391318     -105626.95      633.66383      57053.074      497.97437    
    196600  -105629.27      2.1684642     -105627.1       541.16028      56322.415      497.97437    
    196700  -105629.62      2.4921272     -105627.13      621.93338      54216.839      497.97437    
    196800  -105629.4       2.2494556     -105627.15      561.37245      55766.028      497.97437    
    196900  -105629.52      2.3899896     -105627.13      596.44401      50668.862      497.97437    
    197000  -105629.35      2.2777567     -105627.07      568.43524      53825.93       497.97437    
    197100  -105629.78      2.8061216     -105626.98      700.29359      54203.233      497.97437    
    197200  -105629.29      2.2696897     -105627.02      566.42205      58430.922      497.97437    
    197300  -105629.28      2.1825011     -105627.1       544.66333      59797.302      497.97437    
    197400  -105629.33      2.1857281     -105627.14      545.46867      58273.001      497.97437    
    197500  -105629.57      2.4708923     -105627.1       616.63401      57890.829      497.97437    
    197600  -105629.79      2.7130028     -105627.07      677.05495      53425.279      497.97437    
    197700  -105629.43      2.2394265     -105627.19      558.86959      55573.206      497.97437    
    197800  -105629.16      1.9220648     -105627.24      479.66905      53568.207      497.97437    
    197900  -105629.83      2.7283647     -105627.11      680.88863      54128.24       497.97437    
    198000  -105629.61      2.6042602     -105627.01      649.91722      56649.263      497.97437    
    198100  -105629.08      2.0733316     -105627         517.41908      60422.609      497.97437    
    198200  -105629.37      2.5253028     -105626.85      630.21266      61155.741      497.97437    
    198300  -105629.26      2.6565801     -105626.6       662.97413      58755.885      497.97437    
    198400  -105629.07      2.689011      -105626.38      671.06757      62382.878      497.97437    
    198500  -105628.94      2.6741586     -105626.26      667.36102      62678.938      497.97437    
    198600  -105628.74      2.4975902     -105626.24      623.29674      60055.03       497.97437    
    198700  -105629.51      3.164756      -105626.35      789.79413      56018.446      497.97437    
    198800  -105628.71      1.9074522     -105626.8       476.02234      57436.415      497.97437    
    198900  -105629.9       2.7780624     -105627.12      693.29116      52528.086      497.97437    
    199000  -105629.55      2.0896215     -105627.46      521.48437      52396.107      497.97437    
    199100  -105629.98      2.3945713     -105627.59      597.5874       53482.832      497.97437    
    199200  -105629.63      1.9914963     -105627.64      496.99633      54214.921      497.97437    
    199300  -105629.5       1.9573119     -105627.54      488.46528      52960.466      497.97437    
    199400  -105629.76      2.5298827     -105627.23      631.35562      47382.694      497.97437    
    199500  -105629.55      2.5853321     -105626.97      645.19353      55746.624      497.97437    
    199600  -105629.11      2.2434509     -105626.87      559.87391      53865.889      497.97437    
    199700  -105629.22      2.428828      -105626.79      606.13649      56077.45       497.97437    
    199800  -105629.25      2.4876088     -105626.76      620.80579      56674.654      497.97437    
    199900  -105629.4       2.6071805     -105626.79      650.64601      57051.288      497.97437    
    200000  -105629.39      2.4926919     -105626.9       622.07431      56141.38       497.97437    
Loop time of 277.818 on 2 procs for 200000 steps with 32 atoms

Performance: 31.100 ns/day, 0.772 hours/ns, 719.897 timesteps/s, 23.037 katom-step/s
97.4% CPU use with 1 MPI tasks x 2 OpenMP threads

MPI task timing breakdown:
Section |  min time  |  avg time  |  max time  |%varavg| %total
---------------------------------------------------------------
Pair    | 273.12     | 273.12     | 273.12     |   0.0 | 98.31
Neigh   | 2.7942     | 2.7942     | 2.7942     |   0.0 |  1.01
Comm    | 1.0092     | 1.0092     | 1.0092     |   0.0 |  0.36
Output  | 0.076828   | 0.076828   | 0.076828   |   0.0 |  0.03
Modify  | 0.64004    | 0.64004    | 0.64004    |   0.0 |  0.23
Other   |            | 0.1752     |            |       |  0.06

Nlocal:             32 ave          32 max          32 min
Histogram: 1 0 0 0 0 0 0 0 0 0
Nghost:            943 ave         943 max         943 min
Histogram: 1 0 0 0 0 0 0 0 0 0
Neighs:              0 ave           0 max           0 min
Histogram: 1 0 0 0 0 0 0 0 0 0
FullNghs:         4416 ave        4416 max        4416 min
Histogram: 1 0 0 0 0 0 0 0 0 0

Total # of neighbors = 4416
Ave neighs/atom = 138
Neighbor list builds = 20000
Dangerous builds not checked

write_restart   lammps.restart
System init for write_restart ...
Generated 0 of 0 mixed pair_coeff terms from geometric mixing rule
Total wall time: 0:04:41
