LAMMPS (2 Aug 2023 - Update 1)
  using 2 OpenMP thread(s) per MPI task
Loaded 1 plugins from /home/ch24d003/.conda/envs/deepmd_gpu/lib/deepmd_lmp
plugin load     libdeepmd_lmp.so

units           metal

boundary        p p p

atom_style      atomic

neighbor        2.0 bin

neigh_modify    every 10 delay 0 check no

read_data       /scratch/ch24d003/ActiveLearning_Pt/bulk/bulk.lmp
Reading data file ...
  orthogonal box = (0 0 0) to (7.8948334 7.8700436 8.0146928)
  1 by 1 by 1 MPI processor grid
  reading atoms ...
  32 atoms
  read_data CPU = 0.001 seconds

mass            1 195.084

pair_style deepmd /scratch/ch24d003/ActiveLearning_Pt/DP_models/1/graph1.pb /scratch/ch24d003/ActiveLearning_Pt/DP_models/2/graph2.pb /scratch/ch24d003/ActiveLearning_Pt/DP_models/3/graph3.pb out_file md.out out_freq 100
Summary of lammps deepmd module ...
  >>> Info of deepmd-kit:
  installed to:       /home/ch24d003/.conda/envs/deepmd_gpu
  source:             v2.2.9
  source branch:      HEAD
  source commit:      be437483
  source commit at:   2024-02-04 13:44:12 +0800
  support model ver.: 1.1 
  build variant:      cuda
  build with tf inc:  /home/ch24d003/.conda/envs/deepmd_gpu/include;/home/ch24d003/.conda/envs/deepmd_gpu/include
  build with tf lib:  /home/ch24d003/.conda/envs/deepmd_gpu/lib/libtensorflow_cc.so
  set tf intra_op_parallelism_threads: 0
  set tf inter_op_parallelism_threads: 0
  >>> Info of lammps module:
  use deepmd-kit at:  /home/ch24d003/.conda/envs/deepmd_gpu
pair_coeff      * *

velocity        all create 500 12345678

fix             1 all nvt temp 500 500 0.1

timestep        0.0005

thermo_style    custom step pe ke etotal temp press vol

thermo          100

dump            1 all dcd 100 bulk.dcd

timer timeout   03:00:00 every 100
New timer settings: style=normal  mode=nosync  timeout=03:00:00

run             200000

CITE-CITE-CITE-CITE-CITE-CITE-CITE-CITE-CITE-CITE-CITE-CITE-CITE

Your simulation uses code contributions which should be cited:

- USER-DEEPMD package:

@article{Wang_ComputPhysCommun_2018_v228_p178,
  author = {Wang, Han and Zhang, Linfeng and Han, Jiequn and E, Weinan},
  doi = {10.1016/j.cpc.2018.03.016},
  url = {https://doi.org/10.1016/j.cpc.2018.03.016},
  year = 2018,
  month = {jul},
  publisher = {Elsevier {BV}},
  volume = 228,
  journal = {Comput. Phys. Commun.},
  title = {{DeePMD-kit: A deep learning package for many-body potential energy representation and molecular dynamics}},
  pages = {178--184}
}
@misc{Zeng_JChemPhys_2023_v159_p054801,
  title  = {{DeePMD-kit v2: A software package for deep potential models}},
  author =   {Jinzhe Zeng and Duo Zhang and Denghui Lu and Pinghui Mo and Zeyu Li
         and Yixiao Chen and Mari{\'a}n Rynik and Li'ang Huang and Ziyao Li and 
         Shaochen Shi and Yingze Wang and Haotian Ye and Ping Tuo and Jiabin
         Yang and Ye Ding and Yifan Li and Davide Tisi and Qiyu Zeng and Han 
         Bao and Yu Xia and Jiameng Huang and Koki Muraoka and Yibo Wang and 
         Junhan Chang and Fengbo Yuan and Sigbj{\o}rn L{\o}land Bore and Chun
         Cai and Yinnian Lin and Bo Wang and Jiayan Xu and Jia-Xin Zhu and 
         Chenxing Luo and Yuzhi Zhang and Rhys E A Goodall and Wenshuo Liang
         and Anurag Kumar Singh and Sikai Yao and Jingchao Zhang and Renata
         Wentzcovitch and Jiequn Han and Jie Liu and Weile Jia and Darrin M
         York and Weinan E and Roberto Car and Linfeng Zhang and Han Wang},
  journal =  {J. Chem. Phys.},
  volume =   159,
  issue =    5,  
  year =    2023,
  pages  =   054801,
  doi =      {10.1063/5.0155600},
}

CITE-CITE-CITE-CITE-CITE-CITE-CITE-CITE-CITE-CITE-CITE-CITE-CITE

Generated 0 of 0 mixed pair_coeff terms from geometric mixing rule
Neighbor list info ...
  update: every = 10 steps, delay = 0 steps, check = no
  max neighbors/atom: 2000, page size: 100000
  master list distance cutoff = 8
  ghost atom cutoff = 8
  binsize = 4, bins = 2 2 3
  1 neighbor lists, perpetual/occasional/extra = 1 0 0
  (1) pair deepmd, perpetual
      attributes: full, newton on
      pair build: full/bin/atomonly
      stencil: full/bin/3d
      bin: standard
Per MPI rank memory allocation (min/avg/max) = 3.499 | 3.499 | 3.499 Mbytes
   Step         PotEng         KinEng         TotEng          Temp          Press          Volume    
         0  -105632.03      2.0035322     -105630.02      500            24059.315      497.97437    
       100  -105630.59      0.60496187    -105629.98      150.97383      41309.717      497.97437    
       200  -105630.73      0.93504649    -105629.8       233.3495       42913.888      497.97437    
       300  -105630.59      1.0233466     -105629.57      255.38561      42767.836      497.97437    
       400  -105631.05      1.8085235     -105629.24      451.33376      39209.795      497.97437    
       500  -105630.49      1.6276633     -105628.87      406.19842      44520.727      497.97437    
       600  -105630.02      1.4706242     -105628.55      367.00788      47190.172      497.97437    
       700  -105629.9       1.7390513     -105628.16      433.99634      49622.928      497.97437    
       800  -105629.76      1.9724803     -105627.79      492.2507       56909.436      497.97437    
       900  -105629.93      2.4485348     -105627.49      611.05451      49599.215      497.97437    
      1000  -105629.89      2.4814036     -105627.41      619.25722      49942.401      497.97437    
      1100  -105629.34      1.7741464     -105627.57      442.75464      57249.687      497.97437    
      1200  -105629.35      1.7214791     -105627.63      429.61103      58714.014      497.97437    
      1300  -105630.34      2.7175149     -105627.63      678.18099      46269.183      497.97437    
      1400  -105629.91      1.9727765     -105627.94      492.32462      51688.248      497.97437    
      1500  -105629.87      1.6895331     -105628.18      421.63861      52914.494      497.97437    
      1600  -105630         1.7446309     -105628.25      435.38877      52346.984      497.97437    
      1700  -105630.33      2.0982674     -105628.23      523.64204      44453.034      497.97437    
      1800  -105629.97      1.763932      -105628.21      440.20555      49443.289      497.97437    
      1900  -105629.98      1.9352073     -105628.04      482.94887      49009.296      497.97437    
      2000  -105630.2       2.5495247     -105627.65      636.25747      51018.616      497.97437    
      2100  -105629.19      1.7793988     -105627.41      444.06544      52252.492      497.97437    
      2200  -105629.28      2.1420056     -105627.13      534.55731      59024.933      497.97437    
      2300  -105629.62      2.746683      -105626.87      685.46014      53338.45       497.97437    
      2400  -105629.42      2.3723402     -105627.05      592.03943      58582.154      497.97437    
      2500  -105629.2       1.9300848     -105627.27      481.67051      55884.788      497.97437    
      2600  -105629.54      2.1855997     -105627.36      545.43662      53531.848      497.97437    
      2700  -105630.01      2.5009214     -105627.5       624.12806      50902.982      497.97437    
      2800  -105629.69      1.9371221     -105627.75      483.42674      53030.452      497.97437    
      2900  -105629.82      1.9179637     -105627.9       478.64557      50969.124      497.97437    
      3000  -105629.92      1.9308062     -105627.99      481.85055      47809.361      497.97437    
      3100  -105630.21      2.1478889     -105628.07      536.02553      49374.604      497.97437    
      3200  -105629.89      1.6935599     -105628.2       422.64354      48967.677      497.97437    
      3300  -105629.93      1.670314      -105628.25      416.84231      52175.773      497.97437    
      3400  -105630.31      2.13807       -105628.17      533.57514      47082.478      497.97437    
      3500  -105630.03      2.0128305     -105628.02      502.32046      51672.977      497.97437    
      3600  -105629.8       2.0071599     -105627.79      500.90531      48603.362      497.97437    
      3700  -105629.52      1.9951462     -105627.52      497.90718      53277.789      497.97437    
      3800  -105629.35      2.0961159     -105627.25      523.10511      54354.056      497.97437    
      3900  -105629.79      2.7244256     -105627.06      679.90561      54902.311      497.97437    
      4000  -105629.82      2.5271838     -105627.29      630.68208      53507.379      497.97437    
      4100  -105629.36      1.7043351     -105627.66      425.33259      57222.199      497.97437    
      4200  -105629.63      1.8873033     -105627.74      470.994        51966.838      497.97437    
      4300  -105630.13      2.3396014     -105627.79      583.86916      50747.5        497.97437    
      4400  -105630.09      2.1608822     -105627.93      539.26813      47644.907      497.97437    
      4500  -105629.99      1.8910582     -105628.1       471.93105      52828.817      497.97437    
      4600  -105629.57      1.4256449     -105628.15      355.78288      50449.169      497.97437    
      4700  -105630.33      2.3294437     -105628         581.33422      47679.214      497.97437    
      4800  -105629.81      1.8854723     -105627.93      470.53705      51637.702      497.97437    
      4900  -105629.99      2.1434598     -105627.85      534.92021      51719.659      497.97437    
      5000  -105629.75      2.0255808     -105627.72      505.50243      49299.242      497.97437    
      5100  -105629.35      1.9524299     -105627.4       487.24693      53484.938      497.97437    
      5200  -105629.49      2.5983928     -105626.9       648.45295      55753.776      497.97437    
      5300  -105629.6       2.7917787     -105626.81      696.71418      56266.717      497.97437    
      5400  -105629.09      1.9924222     -105627.1       497.22738      51973.018      497.97437    
      5500  -105629.48      2.1232971     -105627.36      529.88843      53397.656      497.97437    
      5600  -105629.9       2.24523       -105627.65      560.31791      52610.928      497.97437    
      5700  -105630.15      2.196181      -105627.95      548.07727      49297.502      497.97437    
      5800  -105629.97      1.7875486     -105628.18      446.09928      48027.301      497.97437    
      5900  -105629.84      1.6194536     -105628.22      404.14963      49174.903      497.97437    
      6000  -105630.23      2.0996989     -105628.13      523.99927      50705.511      497.97437    
      6100  -105629.81      1.7756472     -105628.03      443.12917      50715.732      497.97437    
      6200  -105630.15      2.2708601     -105627.87      566.71414      50997.703      497.97437    
      6300  -105629.52      1.7796007     -105627.74      444.11581      53959.47       497.97437    
      6400  -105629.78      2.37271       -105627.41      592.13173      55623.106      497.97437    
      6500  -105629.33      2.4653        -105626.86      615.23841      57100.268      497.97437    
      6600  -105629.02      2.4081653     -105626.62      600.97993      63280.033      497.97437    
      6700  -105629         2.354777      -105626.65      587.65636      61842.756      497.97437    
      6800  -105629.16      2.3185301     -105626.84      578.61064      57740.399      497.97437    
      6900  -105629.83      2.5938228     -105627.24      647.31246      54297.607      497.97437    
      7000  -105629.53      2.0229149     -105627.51      504.83711      52341.713      497.97437    
      7100  -105630.09      2.4335159     -105627.65      607.30639      50566.259      497.97437    
      7200  -105629.4       1.5619306     -105627.84      389.79422      53401.624      497.97437    
      7300  -105630.33      2.4326176     -105627.9       607.08221      49309.686      497.97437    
      7400  -105629.73      1.6318142     -105628.1       407.23433      53341.429      497.97437    
      7500  -105629.8       1.6573727     -105628.15      413.61268      52322.176      497.97437    
      7600  -105630.56      2.4908845     -105628.07      621.62326      47518.256      497.97437    
      7700  -105629.62      1.473685      -105628.15      367.77173      49860.624      497.97437    
      7800  -105629.94      1.8896989     -105628.05      471.59184      43842.453      497.97437    
      7900  -105630.04      2.2994813     -105627.74      573.85681      50132.189      497.97437    
      8000  -105629.59      2.1579196     -105627.44      538.52879      57013.54       497.97437    
      8100  -105629.38      2.1492545     -105627.23      536.36635      59426.027      497.97437    
      8200  -105629.49      2.4097432     -105627.08      601.3737       57209.398      497.97437    
      8300  -105629.21      2.0867516     -105627.12      520.76815      58518.946      497.97437    
      8400  -105629.4       2.0678377     -105627.33      516.04803      56774.015      497.97437    
      8500  -105629.98      2.174455      -105627.8       542.65535      49466.015      497.97437    
      8600  -105630.34      2.0565        -105628.29      513.2186       44304.746      497.97437    
      8700  -105630.05      1.592181      -105628.46      397.3435       49381.643      497.97437    
      8800  -105630.16      1.7248495     -105628.43      430.45215      49522.233      497.97437    
      8900  -105630.22      1.9428534     -105628.27      484.85704      48626.961      497.97437    
      9000  -105630.05      1.9817241     -105628.06      494.55756      50870.843      497.97437    
      9100  -105629.76      1.9260535     -105627.83      480.66447      49150.533      497.97437    
      9200  -105629.66      2.0650609     -105627.59      515.35504      53853.154      497.97437    
      9300  -105629.66      2.2519708     -105627.41      562.00014      55241.524      497.97437    
      9400  -105629.56      2.1827184     -105627.38      544.71755      53915.301      497.97437    
      9500  -105629.57      2.1241174     -105627.44      530.09313      54132.52       497.97437    
      9600  -105629.8       2.2218278     -105627.57      554.47767      50610.303      497.97437    
      9700  -105629.74      1.9332915     -105627.81      482.47077      52027.155      497.97437    
      9800  -105629.95      1.892154      -105628.06      472.20454      53559.351      497.97437    
      9900  -105630.09      1.6339913     -105628.46      407.77764      48864.336      497.97437    
     10000  -105630.57      1.6122061     -105628.96      402.34094      41396.811      497.97437    
     10100  -105630.54      1.4904688     -105629.05      371.96028      40664.947      497.97437    
     10200  -105630.57      1.6196053     -105628.95      404.18749      43729.609      497.97437    
     10300  -105630.32      1.6027234     -105628.72      399.97445      45406.856      497.97437    
     10400  -105629.9       1.468769      -105628.43      366.54488      48432.819      497.97437    
     10500  -105630.28      2.178019      -105628.1       543.54478      46793.455      497.97437    
     10600  -105629.92      2.0083808     -105627.92      501.21001      49496.279      497.97437    
     10700  -105629.6       1.8039051     -105627.8       450.18119      53488.602      497.97437    
     10800  -105629.54      1.9390226     -105627.6       483.90102      54113.378      497.97437    
     10900  -105630.11      2.7439726     -105627.37      684.78374      47550.866      497.97437    
     11000  -105629.64      2.1629604     -105627.47      539.78678      51603.139      497.97437    
     11100  -105629.64      1.9115201     -105627.73      477.03752      53248.178      497.97437    
     11200  -105629.32      1.439447      -105627.88      359.22731      56334.387      497.97437    
     11300  -105630.37      2.4882163     -105627.88      620.95739      49835.703      497.97437    
     11400  -105629.97      1.8463088     -105628.12      460.76342      50321.57       497.97437    
     11500  -105630.22      1.6978382     -105628.52      423.71121      45548.543      497.97437    
     11600  -105630.35      1.5573214     -105628.79      388.64396      47008.102      497.97437    
     11700  -105630.24      1.4254225     -105628.82      355.72736      47352.635      497.97437    
     11800  -105630.56      1.9015734     -105628.66      474.55522      45235.8        497.97437    
     11900  -105630.21      1.7380215     -105628.48      433.73933      46493.337      497.97437    
     12000  -105630.19      1.8772387     -105628.31      468.48227      46356.462      497.97437    
     12100  -105629.69      1.5266115     -105628.16      380.98003      53590.244      497.97437    
     12200  -105629.98      2.0169019     -105627.96      503.33653      50787.531      497.97437    
     12300  -105630.11      2.2678151     -105627.84      565.95422      51364.167      497.97437    
     12400  -105629.69      1.8501721     -105627.84      461.72755      53412.332      497.97437    
     12500  -105629.99      2.1743146     -105627.82      542.62031      50608.966      497.97437    
     12600  -105629.57      1.7513351     -105627.82      437.06188      51231.906      497.97437    
     12700  -105630.08      2.3348618     -105627.74      582.68634      49946.896      497.97437    
     12800  -105629.62      1.9330626     -105627.69      482.41365      49748.664      497.97437    
     12900  -105630.01      2.3860031     -105627.62      595.44914      50999.124      497.97437    
     13000  -105629.52      1.8428123     -105627.68      459.89084      53722.896      497.97437    
     13100  -105629.46      1.7581048     -105627.7       438.75132      55990.019      497.97437    
     13200  -105630.33      2.6766803     -105627.65      667.99033      48814.197      497.97437    
     13300  -105629.82      1.9427691     -105627.88      484.83598      53022.896      497.97437    
     13400  -105629.8       1.6928009     -105628.11      422.45411      53285.382      497.97437    
     13500  -105629.9       1.7021547     -105628.2       424.78844      51889.096      497.97437    
     13600  -105630.44      2.2491491     -105628.19      561.29596      46742.576      497.97437    
     13700  -105629.91      1.6419776     -105628.27      409.7707       49038.741      497.97437    
     13800  -105629.97      1.7321889     -105628.24      432.28375      46221.514      497.97437    
     13900  -105630.34      2.3880033     -105627.95      595.9483       47619.47       497.97437    
     14000  -105629.61      1.9065172     -105627.7       475.789        55983.406      497.97437    
     14100  -105629.34      1.9159915     -105627.43      478.1534       57048.999      497.97437    
     14200  -105629.35      2.2205852     -105627.13      554.16757      55063.616      497.97437    
     14300  -105629.71      2.7028252     -105627         674.51503      54608.83       497.97437    
     14400  -105629.45      2.2171323     -105627.23      553.30586      56626.666      497.97437    
     14500  -105629.55      2.0794935     -105627.47      518.95682      53400.538      497.97437    
     14600  -105629.78      2.115023      -105627.66      527.82354      53022.045      497.97437    
     14700  -105629.91      2.1083746     -105627.8       526.16437      53343.762      497.97437    
     14800  -105629.71      1.8147021     -105627.89      452.8757       53476.655      497.97437    
     14900  -105630.12      2.2156491     -105627.9       552.93572      50092.165      497.97437    
     15000  -105630.04      2.0566227     -105627.98      513.24921      48885.924      497.97437    
     15100  -105629.68      1.6098981     -105628.07      401.76496      53912.226      497.97437    
     15200  -105630.05      2.0358139     -105628.02      508.05619      51032.481      497.97437    
     15300  -105630.05      2.2071046     -105627.85      550.80337      51056.15       497.97437    
     15400  -105629.68      2.1073132     -105627.57      525.89951      54366.25       497.97437    
     15500  -105629.39      2.1592807     -105627.23      538.86847      56998.196      497.97437    
     15600  -105629.4       2.4574498     -105626.94      613.27932      53803.397      497.97437    
     15700  -105629.2       2.2992102     -105626.9       573.78917      57352.868      497.97437    
     15800  -105629.22      2.174169      -105627.05      542.58398      58263.158      497.97437    
     15900  -105629.67      2.3083261     -105627.37      576.06411      51503.079      497.97437    
     16000  -105630.08      2.2381652     -105627.84      558.55482      50812.27       497.97437    
     16100  -105629.74      1.6572516     -105628.08      413.58246      52679.888      497.97437    
     16200  -105630.2       2.1198985     -105628.08      529.04027      48158.396      497.97437    
     16300  -105630.09      1.9799768     -105628.11      494.12153      47255.859      497.97437    
     16400  -105630.02      1.8879102     -105628.13      471.14546      50467.047      497.97437    
     16500  -105629.84      1.749073      -105628.09      436.49734      53129.335      497.97437    
     16600  -105629.99      2.0739274     -105627.91      517.56777      51855.031      497.97437    
     16700  -105629.82      2.2100205     -105627.61      551.53106      52763.761      497.97437    
     16800  -105629.56      2.1988915     -105627.36      548.7537       56647.444      497.97437    
     16900  -105629.34      2.2037464     -105627.14      549.9653       59751.285      497.97437    
     17000  -105629.54      2.5923667     -105626.95      646.94907      58816.971      497.97437    
     17100  -105629.1       2.1035112     -105626.99      524.95067      56353.011      497.97437    
     17200  -105629.74      2.4284796     -105627.31      606.04955      53674.041      497.97437    
     17300  -105629.96      2.0632085     -105627.89      514.89276      53404.67       497.97437    
     17400  -105630.04      1.8441671     -105628.2       460.22895      52687.7        497.97437    
     17500  -105630.08      1.7807079     -105628.3       444.39213      53035.239      497.97437    
     17600  -105630.05      1.7585961     -105628.29      438.87391      52263.009      497.97437    
     17700  -105630.27      2.0933619     -105628.18      522.41781      49601.431      497.97437    
     17800  -105629.96      1.933316      -105628.03      482.47688      51920.703      497.97437    
     17900  -105629.84      2.0047711     -105627.83      500.30917      53642.672      497.97437    
     18000  -105629.49      1.9357089     -105627.56      483.07406      60478.665      497.97437    
     18100  -105629.92      2.6895026     -105627.23      671.19025      56521.533      497.97437    
     18200  -105629.35      2.1085492     -105627.24      526.20796      58004.738      497.97437    
     18300  -105629.46      2.1137461     -105627.34      527.5049       57927.143      497.97437    
     18400  -105629.56      2.0525558     -105627.51      512.23427      57722.062      497.97437    
     18500  -105630.16      2.2267122     -105627.93      555.69662      50787.304      497.97437    
     18600  -105630.01      1.5394966     -105628.47      384.19561      51431.942      497.97437    
     18700  -105630.34      1.7904618     -105628.55      446.8263       47752.398      497.97437    
     18800  -105630.23      1.7295328     -105628.5       431.62091      47828.435      497.97437    
     18900  -105630.26      1.9125668     -105628.35      477.29874      48037.999      497.97437    
     19000  -105630.02      1.8821529     -105628.14      469.70865      49565.449      497.97437    
     19100  -105629.67      1.7844907     -105627.89      445.33617      49204.326      497.97437    
     19200  -105630.08      2.4819203     -105627.6       619.38616      54249.678      497.97437    
     19300  -105629.29      1.7640471     -105627.53      440.23427      60077.4        497.97437    
     19400  -105629.8       2.3526913     -105627.44      587.13587      53883.136      497.97437    
     19500  -105629.8       2.2979141     -105627.5       573.46571      52965.054      497.97437    
     19600  -105629.57      1.8395949     -105627.73      459.08792      58013.024      497.97437    
     19700  -105629.85      1.8350447     -105628.02      457.95237      54790.263      497.97437    
     19800  -105630.2       1.8202374     -105628.38      454.25707      46289.386      497.97437    
     19900  -105630.47      1.7766506     -105628.7       443.3796       43782.475      497.97437    
     20000  -105630.33      1.5440048     -105628.79      385.32067      45629.902      497.97437    
     20100  -105630.33      1.6160869     -105628.72      403.30943      46602.197      497.97437    
     20200  -105630.28      1.7032497     -105628.57      425.06172      43866.59       497.97437    
     20300  -105630.19      1.8051595     -105628.39      450.49424      47216.649      497.97437    
     20400  -105629.94      1.7741495     -105628.17      442.75542      52257.386      497.97437    
     20500  -105630.13      2.2086993     -105627.92      551.20133      49909.126      497.97437    
     20600  -105629.52      1.7314359     -105627.79      432.09583      53017.34       497.97437    
     20700  -105629.77      2.1601431     -105627.61      539.08369      56382.182      497.97437    
     20800  -105629.85      2.3535544     -105627.5       587.35126      52586.627      497.97437    
     20900  -105629.52      1.9699988     -105627.55      491.63142      57018.278      497.97437    
     21000  -105629.95      2.2831967     -105627.67      569.79286      52094.203      497.97437    
     21100  -105629.55      1.5385316     -105628.01      383.95479      52418.781      497.97437    
     21200  -105630.5       2.1082424     -105628.39      526.13138      47676.99       497.97437    
     21300  -105630.15      1.4528123     -105628.7       362.56275      46969.194      497.97437    
     21400  -105630.76      2.0439307     -105628.71      510.08181      42612.093      497.97437    
     21500  -105629.93      1.2562454     -105628.67      313.50766      46647.573      497.97437    
     21600  -105630.28      1.8075859     -105628.47      451.09979      47990.171      497.97437    
     21700  -105630.05      1.8332674     -105628.22      457.50884      52066.587      497.97437    
     21800  -105630.23      2.1851779     -105628.04      545.33135      49349.371      497.97437    
     21900  -105629.53      1.5750783     -105627.96      393.07535      53206.832      497.97437    
     22000  -105629.99      2.2200774     -105627.77      554.04085      53332.211      497.97437    
     22100  -105629.51      1.8849504     -105627.63      470.4068       55704.796      497.97437    
     22200  -105629.9       2.3919761     -105627.51      596.93975      52983.361      497.97437    
     22300  -105629.67      2.1264097     -105627.54      530.6652       49518.026      497.97437    
     22400  -105629.85      2.0970607     -105627.75      523.3409       52300.045      497.97437    
     22500  -105629.78      1.6344961     -105628.15      407.90362      52591.595      497.97437    
     22600  -105630.2       1.7302187     -105628.47      431.79208      50225.825      497.97437    
     22700  -105630.41      1.8510139     -105628.56      461.93764      43677.177      497.97437    
     22800  -105630.39      1.826841      -105628.56      455.90505      44958.724      497.97437    
     22900  -105630.17      1.6794088     -105628.49      419.112        50102.569      497.97437    
     23000  -105629.6       1.2911905     -105628.31      322.22854      53073.299      497.97437    
     23100  -105630.4       2.3970478     -105628         598.20545      46147.042      497.97437    
     23200  -105630.09      2.1341871     -105627.95      532.60613      50279.023      497.97437    
     23300  -105629.51      1.543454      -105627.97      385.18322      51840.171      497.97437    
     23400  -105630.21      2.3769529     -105627.84      593.19057      48535.045      497.97437    
     23500  -105629.58      1.7930041     -105627.78      447.46075      47317.536      497.97437    
     23600  -105629.79      2.1077064     -105627.68      525.99763      54357.982      497.97437    
     23700  -105629.95      2.4152165     -105627.54      602.73961      53280.405      497.97437    
     23800  -105629.45      1.8801511     -105627.57      469.20909      52335.183      497.97437    
     23900  -105629.94      2.2887179     -105627.65      571.17071      51173.831      497.97437    
     24000  -105629.5       1.6236699     -105627.87      405.20183      52715.288      497.97437    
     24100  -105630.52      2.3907516     -105628.13      596.63417      48070.495      497.97437    
     24200  -105630         1.5195395     -105628.48      379.21514      48909.426      497.97437    
     24300  -105630.17      1.6064554     -105628.56      400.9058       50591.261      497.97437    
     24400  -105630.38      1.9069765     -105628.48      475.90362      47848.434      497.97437    
     24500  -105630.21      1.8802435     -105628.33      469.23214      49322.771      497.97437    
     24600  -105629.8       1.695601      -105628.1       423.15291      52552.836      497.97437    
     24700  -105629.73      1.979428      -105627.76      493.98456      58664.61       497.97437    
     24800  -105629.66      2.1434624     -105627.52      534.92085      53927.073      497.97437    
     24900  -105630.11      2.5733698     -105627.53      642.20823      54016.595      497.97437    
     25000  -105629.43      1.7208036     -105627.71      429.44245      56987.84       497.97437    
     25100  -105629.65      1.9026952     -105627.74      474.83518      53530.372      497.97437    
     25200  -105630.09      2.3387108     -105627.75      583.6469       50573.618      497.97437    
     25300  -105629.73      1.8231135     -105627.91      454.97483      54670.378      497.97437    
     25400  -105630.15      2.0853501     -105628.06      520.4184       48092.239      497.97437    
     25500  -105630.04      1.7200387     -105628.32      429.25157      50372.622      497.97437    
     25600  -105630.04      1.5665549     -105628.48      390.94826      50787.737      497.97437    
     25700  -105630.57      2.0300495     -105628.54      506.61763      46438.688      497.97437    
     25800  -105630.17      1.5539018     -105628.62      387.79056      49118.156      497.97437    
     25900  -105630.33      1.7725408     -105628.56      442.35395      48558.489      497.97437    
     26000  -105629.87      1.5762086     -105628.29      393.35743      51557.962      497.97437    
     26100  -105630.09      2.2083648     -105627.88      551.11786      51563.211      497.97437    
     26200  -105629.91      2.2525217     -105627.66      562.13761      56247.868      497.97437    
     26300  -105629.39      1.7725149     -105627.62      442.3475       59383.953      497.97437    
     26400  -105629.49      1.9987177     -105627.49      498.79847      55466.372      497.97437    
     26500  -105629.84      2.4999425     -105627.34      623.88378      53705.043      497.97437    
     26600  -105629.46      2.0656186     -105627.4       515.49423      56439.745      497.97437    
     26700  -105629.93      2.3195103     -105627.61      578.85524      54227.139      497.97437    
     26800  -105629.72      1.6912747     -105628.03      422.07325      55440.577      497.97437    
     26900  -105630.04      1.8071464     -105628.23      450.9901       49504.223      497.97437    
     27000  -105630.29      1.9860114     -105628.31      495.62751      49704.974      497.97437    
     27100  -105630.14      1.7991139     -105628.34      448.98551      48993.473      497.97437    
     27200  -105630.32      2.021906      -105628.3       504.58534      50498.672      497.97437    
     27300  -105629.67      1.4311086     -105628.23      357.14638      54423.875      497.97437    
     27400  -105629.99      1.9832194     -105628.01      494.93075      53269.261      497.97437    
     27500  -105630.18      2.3717244     -105627.81      591.88575      50276.028      497.97437    
     27600  -105629.77      1.9313147     -105627.83      481.97744      53978.814      497.97437    
     27700  -105629.56      1.7471617     -105627.81      436.02035      53886.772      497.97437    
     27800  -105629.97      2.2591969     -105627.72      563.80348      53088.122      497.97437    
     27900  -105630.03      2.3011412     -105627.73      574.27107      52527.306      497.97437    
     28000  -105629.51      1.6341628     -105627.87      407.82044      53789.543      497.97437    
     28100  -105629.96      2.0479786     -105627.91      511.09199      50064.865      497.97437    
     28200  -105630.21      2.215966      -105628         553.01482      49228.835      497.97437    
     28300  -105629.92      1.6660204     -105628.26      415.77079      54674.302      497.97437    
     28400  -105630.03      1.5762951     -105628.45      393.37901      49886.507      497.97437    
     28500  -105630.41      1.8805428     -105628.53      469.30685      46240.976      497.97437    
     28600  -105630.36      1.7954953     -105628.57      448.08247      46155.002      497.97437    
     28700  -105630.1       1.5923177     -105628.5       397.37761      49562.95       497.97437    
     28800  -105630.34      2.1989464     -105628.14      548.7674       48511.044      497.97437    
     28900  -105629.53      1.7568928     -105627.78      438.44886      59274.37       497.97437    
     29000  -105629.32      1.8075176     -105627.51      451.08274      54772.211      497.97437    
     29100  -105629.94      2.6436907     -105627.3       659.75746      54955.809      497.97437    
     29200  -105629.7       2.2863677     -105627.41      570.5842       50955.038      497.97437    
     29300  -105629.72      2.0729472     -105627.64      517.32314      55136.307      497.97437    
     29400  -105629.57      1.7480979     -105627.83      436.25399      54955.848      497.97437    
     29500  -105630.08      2.1917153     -105627.89      546.96282      49782.382      497.97437    
     29600  -105630.18      2.1383265     -105628.04      533.63915      51237.826      497.97437    
     29700  -105629.88      1.6506372     -105628.23      411.93178      51645.972      497.97437    
     29800  -105630.17      1.8303957     -105628.34      456.79216      50198.567      497.97437    
     29900  -105630.09      1.6417982     -105628.45      409.72592      49493.139      497.97437    
     30000  -105630.14      1.6207244     -105628.52      404.46676      49946.614      497.97437    
     30100  -105630.59      2.1243678     -105628.46      530.15564      44562.033      497.97437    
     30200  -105630.18      1.7818002     -105628.4       444.66472      45876.476      497.97437    
     30300  -105629.69      1.4421287     -105628.24      359.89655      52893.941      497.97437    
     30400  -105630.02      2.1253339     -105627.9       530.39673      51329.326      497.97437    
     30500  -105630.19      2.5584917     -105627.63      638.49525      50343.735      497.97437    
     30600  -105629.41      1.7396984     -105627.67      434.15783      59489.499      497.97437    
     30700  -105629.47      1.8423112     -105627.63      459.7658       55674.136      497.97437    
     30800  -105629.68      2.1982921     -105627.48      548.60413      54764.232      497.97437    
     30900  -105630.06      2.6656755     -105627.4       665.24397      51521.609      497.97437    
     31000  -105629.69      2.014         -105627.68      502.61232      52834.745      497.97437    
     31100  -105629.65      1.6432461     -105628.01      410.08727      51348.783      497.97437    
     31200  -105630.03      1.8546556     -105628.18      462.84646      52489.399      497.97437    
     31300  -105630.22      1.9623941     -105628.26      489.7336       47897.649      497.97437    
     31400  -105630.23      1.9250112     -105628.3       480.40436      47677.148      497.97437    
     31500  -105630.26      1.9475253     -105628.31      486.02294      46583.586      497.97437    
     31600  -105629.76      1.5052134     -105628.26      375.63993      53934.588      497.97437    
     31700  -105629.95      2.1633138     -105627.79      539.87497      54114.645      497.97437    
     31800  -105629.81      2.5595874     -105627.25      638.76871      52187.594      497.97437    
     31900  -105629.19      1.970514      -105627.22      491.75998      58179.684      497.97437    
     32000  -105629.38      2.1553199     -105627.23      537.88         59353.33       497.97437    
     32100  -105629.64      2.3139372     -105627.32      577.46442      57375.72       497.97437    
     32200  -105629.78      2.1894912     -105627.59      546.40778      54961.163      497.97437    
     32300  -105629.89      1.9176515     -105627.97      478.56765      51439.885      497.97437    
     32400  -105630.06      1.9176371     -105628.14      478.56408      50436.836      497.97437    
     32500  -105630.29      2.0034967     -105628.29      499.99113      48307.129      497.97437    
     32600  -105629.69      1.3660949     -105628.33      340.92161      52862.725      497.97437    
     32700  -105630.23      2.0729423     -105628.16      517.32192      48308.625      497.97437    
     32800  -105630.28      2.2637424     -105628.02      564.93785      49074.246      497.97437    
     32900  -105629.51      1.5319108     -105627.98      382.3025       55446.289      497.97437    
     33000  -105629.87      2.0365064     -105627.83      508.22899      53544.949      497.97437    
     33100  -105629.74      2.041063      -105627.7       509.36614      53913.113      497.97437    
     33200  -105629.95      2.2730034     -105627.68      567.24901      52462.963      497.97437    
     33300  -105629.69      1.9471623     -105627.75      485.93235      52562.318      497.97437    
     33400  -105629.54      1.7807576     -105627.76      444.40454      52836.729      497.97437    
     33500  -105629.91      2.2286436     -105627.68      556.17862      50499.456      497.97437    
     33600  -105630.05      2.3394898     -105627.71      583.84131      51899.036      497.97437    
     33700  -105629.58      1.6937531     -105627.89      422.69174      51635.885      497.97437    
     33800  -105629.99      1.954842      -105628.03      487.8489       46481.387      497.97437    
     33900  -105630.17      1.9574095     -105628.22      488.48963      48962.383      497.97437    
     34000  -105630.21      1.7166765     -105628.49      428.4125       47565.083      497.97437    
     34100  -105630.16      1.4607449     -105628.7       364.5424       52348.598      497.97437    
     34200  -105630.49      1.7478385     -105628.74      436.18926      44829.033      497.97437    
     34300  -105630.25      1.6109509     -105628.64      402.0277       47553.197      497.97437    
     34400  -105630.23      2.0062293     -105628.22      500.67307      50691.279      497.97437    
     34500  -105629.95      2.1405243     -105627.81      534.18762      53053.096      497.97437    
     34600  -105629.29      1.6220555     -105627.67      404.79894      55666.66       497.97437    
     34700  -105629.84      2.3534242     -105627.48      587.31877      54052.926      497.97437    
     34800  -105629.71      2.2701466     -105627.44      566.53608      54001.897      497.97437    
     34900  -105629.74      2.17494       -105627.57      542.7764       54266.399      497.97437    
     35000  -105629.74      1.9552043     -105627.79      487.93932      55437.038      497.97437    
     35100  -105629.71      1.7093635     -105628         426.58746      53988.388      497.97437    
     35200  -105630         1.8907688     -105628.11      471.85885      49229.049      497.97437    
     35300  -105630.34      2.0705994     -105628.27      516.73722      47116.594      497.97437    
     35400  -105630.16      1.570997      -105628.59      392.05683      49117.128      497.97437    
     35500  -105630.48      1.5817093     -105628.89      394.73019      45122.607      497.97437    
     35600  -105630.28      1.2977758     -105628.98      323.87196      46534.276      497.97437    
     35700  -105630.55      1.7257251     -105628.82      430.67066      44545.677      497.97437    
     35800  -105630.34      1.7916807     -105628.54      447.1305       48563.279      497.97437    
     35900  -105630.37      2.0374029     -105628.33      508.45273      47446.354      497.97437    
     36000  -105629.72      1.4776665     -105628.24      368.76534      52234.422      497.97437    
     36100  -105629.53      1.453908      -105628.08      362.83619      55401.257      497.97437    
     36200  -105630.58      2.800927      -105627.78      698.99724      45911.628      497.97437    
     36300  -105629.8       1.9522036     -105627.84      487.19047      50725.56       497.97437    
     36400  -105629.62      1.7197067     -105627.9       429.16871      55620.198      497.97437    
     36500  -105629.7       1.8656729     -105627.83      465.59592      53788.548      497.97437    
     36600  -105629.83      2.162129      -105627.67      539.57929      48224.114      497.97437    
     36700  -105630.13      2.6438032     -105627.49      659.78554      50769.72       497.97437    
     36800  -105629.4       1.8102475     -105627.59      451.76401      56262.867      497.97437    
     36900  -105629.47      1.7471111     -105627.72      436.00773      54187.402      497.97437    
     37000  -105630.16      2.2692947     -105627.89      566.32347      50952.193      497.97437    
     37100  -105630.02      1.792713      -105628.23      447.38811      50051.131      497.97437    
     37200  -105630.31      1.8527147     -105628.46      462.36208      46370.6        497.97437    
     37300  -105630.38      1.778406      -105628.6       443.81765      46044.934      497.97437    
     37400  -105630.08      1.4704966     -105628.61      366.97601      49524.531      497.97437    
     37500  -105630.08      1.6718589     -105628.41      417.22784      49030.314      497.97437    
     37600  -105630.04      2.0082936     -105628.03      501.18824      48687.063      497.97437    
     37700  -105630.28      2.4477897     -105627.83      610.86856      48770.524      497.97437    
     37800  -105629.48      1.6025014     -105627.87      399.91906      55362.769      497.97437    
     37900  -105629.47      1.6822202     -105627.79      419.8136       51429.666      497.97437    
     38000  -105630.19      2.6229698     -105627.57      654.58636      50105.206      497.97437    
     38100  -105629.89      2.2665084     -105627.63      565.62814      51905.899      497.97437    
     38200  -105629.7       1.8688263     -105627.84      466.38289      53229.102      497.97437    
     38300  -105629.82      1.8057466     -105628.01      450.64077      55174.393      497.97437    
     38400  -105629.65      1.5381195     -105628.11      383.85193      56067.27       497.97437    
     38500  -105630.33      2.2838685     -105628.05      569.96051      48403.247      497.97437    
     38600  -105630.47      2.4778715     -105627.99      618.37575      47983.643      497.97437    
     38700  -105629.56      1.4116827     -105628.15      352.29848      55176.64       497.97437    
     38800  -105629.85      1.7035872     -105628.14      425.14595      52577.182      497.97437    
     38900  -105629.9       1.9350158     -105627.97      482.90108      46737.772      497.97437    
     39000  -105630.32      2.5983267     -105627.72      648.43646      45630.729      497.97437    
     39100  -105629.7       1.9965482     -105627.7       498.25706      53869.527      497.97437    
     39200  -105629.61      1.8866467     -105627.73      470.83013      59499.316      497.97437    
     39300  -105629.72      2.0120831     -105627.71      502.13396      55485.167      497.97437    
     39400  -105629.59      1.9361719     -105627.65      483.1896       57237.231      497.97437    
     39500  -105630.12      2.5909811     -105627.53      646.6033       50760.858      497.97437    
     39600  -105629.73      2.0892984     -105627.64      521.40372      54468.051      497.97437    
     39700  -105629.78      1.8967931     -105627.88      473.36225      55191.169      497.97437    
     39800  -105629.49      1.4390113     -105628.05      359.11857      54557.982      497.97437    
     39900  -105630.47      2.4071353     -105628.06      600.72287      47622.113      497.97437    
     40000  -105630.26      2.0261466     -105628.24      505.64362      47626.786      497.97437    
     40100  -105630.02      1.5537605     -105628.47      387.7553       50905.383      497.97437    
     40200  -105630.03      1.448169      -105628.58      361.40396      49007.579      497.97437    
     40300  -105630.35      1.8612764     -105628.49      464.49873      47173.992      497.97437    
     40400  -105630.44      2.3582151     -105628.09      588.51439      46365.178      497.97437    
     40500  -105629.71      1.9655425     -105627.74      490.51931      55674.44       497.97437    
     40600  -105629.36      1.8952362     -105627.46      472.97372      56713.338      497.97437    
     40700  -105629.41      2.1820847     -105627.23      544.55942      55917.636      497.97437    
     40800  -105629.54      2.3842406     -105627.16      595.0093       56879.45       497.97437    
     40900  -105629.88      2.5488234     -105627.33      636.08245      54857.32       497.97437    
     41000  -105629.58      1.9764571     -105627.61      493.24313      50967.828      497.97437    
     41100  -105629.72      1.9679626     -105627.75      491.12328      49857.224      497.97437    
     41200  -105629.86      2.0429473     -105627.82      509.8364       47637.308      497.97437    
     41300  -105630.07      2.1688801     -105627.9       541.26408      49958.682      497.97437    
     41400  -105630.01      1.9619467     -105628.05      489.62194      48442.3        497.97437    
     41500  -105630.1       1.8953901     -105628.2       473.01213      49970.791      497.97437    
     41600  -105629.93      1.5895228     -105628.34      396.68012      52272.748      497.97437    
     41700  -105630.13      1.707623      -105628.43      426.15311      47946.315      497.97437    
     41800  -105630.36      1.9196219     -105628.44      479.0594       45921.984      497.97437    
     41900  -105630.3       1.9042546     -105628.4       475.22435      48346.093      497.97437    
     42000  -105630.04      1.747836      -105628.29      436.18863      47775.836      497.97437    
     42100  -105629.7       1.646745      -105628.05      410.96045      49117.797      497.97437    
     42200  -105629.91      2.2167693     -105627.7       553.21528      53061.982      497.97437    
     42300  -105629.83      2.3469897     -105627.49      585.71299      52843.98       497.97437    
     42400  -105629.53      2.0449909     -105627.49      510.3464       55014.14       497.97437    
     42500  -105629.64      2.0951106     -105627.54      522.85423      53703.856      497.97437    
     42600  -105629.47      1.8358106     -105627.64      458.14351      55696.584      497.97437    
     42700  -105630.28      2.5121358     -105627.77      626.92672      49557.099      497.97437    
     42800  -105629.97      1.7527986     -105628.22      437.4271       47634.414      497.97437    
     42900  -105629.94      1.4736208     -105628.47      367.75569      52347.592      497.97437    
     43000  -105630.3       1.8348698     -105628.46      457.90871      49046.34       497.97437    
     43100  -105630.43      2.0326018     -105628.39      507.25457      45472.906      497.97437    
     43200  -105629.94      1.6126611     -105628.33      402.45448      49664.241      497.97437    
     43300  -105629.98      1.8451219     -105628.14      460.46724      50525.733      497.97437    
     43400  -105630.01      2.1486683     -105627.86      536.22004      51389.449      497.97437    
     43500  -105629.69      1.9564254     -105627.73      488.24404      55996.425      497.97437    
     43600  -105629.83      2.1478227     -105627.68      536.00902      49354.105      497.97437    
     43700  -105629.65      1.9484111     -105627.7       486.244        52870.224      497.97437    
     43800  -105629.88      2.1770418     -105627.7       543.30092      50401.106      497.97437    
     43900  -105629.9       2.1141696     -105627.79      527.61056      54493.208      497.97437    
     44000  -105629.57      1.6702829     -105627.9       416.83454      53276.47       497.97437    
     44100  -105630.33      2.3586506     -105627.97      588.62308      46959.585      497.97437    
     44200  -105629.69      1.5098391     -105628.18      376.79432      51461.94       497.97437    
     44300  -105630.4       1.9970062     -105628.4       498.37135      47913.175      497.97437    
     44400  -105630.07      1.4284698     -105628.64      356.48784      47226.43       497.97437    
     44500  -105630.69      1.9422264     -105628.75      484.70055      43046.087      497.97437    
     44600  -105630.2       1.3952969     -105628.8       348.20925      46746.344      497.97437    
     44700  -105630.34      1.7114697     -105628.62      427.11309      46860.469      497.97437    
     44800  -105630.19      2.0655648     -105628.13      515.48081      49200.969      497.97437    
     44900  -105629.7       1.8400939     -105627.86      459.21246      56326.502      497.97437    
     45000  -105629.72      2.0384327     -105627.68      508.70972      53143.536      497.97437    
     45100  -105629.84      2.2569011     -105627.58      563.23055      52340.512      497.97437    
     45200  -105629.68      2.0823259     -105627.6       519.66368      54896.29       497.97437    
     45300  -105629.55      1.8880808     -105627.66      471.18803      57615.072      497.97437    
     45400  -105630.24      2.4836219     -105627.75      619.81081      50105.064      497.97437    
     45500  -105629.72      1.6188616     -105628.1       404.00187      52225.139      497.97437    
     45600  -105630.11      1.764794      -105628.35      440.42065      50379.761      497.97437    
     45700  -105630.19      1.7279109     -105628.46      431.21615      47232.561      497.97437    
     45800  -105630.52      2.0341893     -105628.49      507.65075      44504.899      497.97437    
     45900  -105630.03      1.5423512     -105628.49      384.90801      50717.027      497.97437    
     46000  -105630.12      1.9055722     -105628.21      475.55316      51988.215      497.97437    
     46100  -105629.65      2.020946      -105627.63      504.34575      51969.556      497.97437    
     46200  -105629.57      2.2037902     -105627.37      549.97622      52791.079      497.97437    
     46300  -105629.4       2.1189282     -105627.28      528.79814      54979.976      497.97437    
     46400  -105629.81      2.5148449     -105627.3       627.60281      53007.862      497.97437    
     46500  -105629.69      2.110393      -105627.58      526.66808      51914.791      497.97437    
     46600  -105629.5       1.6512282     -105627.84      412.07926      52453.146      497.97437    
     46700  -105630.31      2.3452065     -105627.96      585.26796      47670.651      497.97437    
     46800  -105630.02      1.8212712     -105628.19      454.51506      49686.046      497.97437    
     46900  -105630.04      1.7291798     -105628.31      431.53282      50829.131      497.97437    
     47000  -105629.99      1.6926264     -105628.3       422.41058      50110.339      497.97437    
     47100  -105630.33      2.1945915     -105628.14      547.68061      47144.542      497.97437    
     47200  -105629.77      1.9506245     -105627.82      486.79639      53099.566      497.97437    
     47300  -105629.45      2.2123021     -105627.24      552.10044      56594.713      497.97437    
     47400  -105629.25      2.3318628     -105626.91      581.93792      56510.806      497.97437    
     47500  -105629.36      2.4211738     -105626.93      604.22632      56301.407      497.97437    
     47600  -105629.22      2.0654748     -105627.15      515.45834      61017.547      497.97437    
     47700  -105629.72      2.3265152     -105627.4       580.60338      53488.581      497.97437    
     47800  -105629.85      2.0823598     -105627.76      519.67215      46910.691      497.97437    
     47900  -105630.07      2.0476019     -105628.02      510.99798      47853.373      497.97437    
     48000  -105630.12      1.9326834     -105628.18      482.31903      48602.794      497.97437    
     48100  -105630.02      1.7632951     -105628.26      440.04659      51422.442      497.97437    
     48200  -105629.94      1.7276385     -105628.22      431.14815      51217.399      497.97437    
     48300  -105630.1       2.0520197     -105628.04      512.10049      50508.391      497.97437    
     48400  -105630.09      2.2426002     -105627.85      559.66162      50254.958      497.97437    
     48500  -105629.69      1.9870028     -105627.7       495.87492      54332.074      497.97437    
     48600  -105629.29      1.8656867     -105627.42      465.59938      58575.281      497.97437    
     48700  -105629.62      2.8361722     -105626.78      707.79301      57081.376      497.97437    
     48800  -105629.2       2.504229      -105626.69      624.95351      58365.838      497.97437    
     48900  -105629.29      2.3384667     -105626.95      583.58599      57579.445      497.97437    
     49000  -105629.07      1.8833981     -105627.19      470.01942      54773.505      497.97437    
     49100  -105630.34      2.8799073     -105627.46      718.7075       49864.216      497.97437    
     49200  -105629.42      1.5640278     -105627.85      390.3176       54821.412      497.97437    
     49300  -105630.05      2.1290787     -105627.92      531.33129      50751.587      497.97437    
     49400  -105629.97      1.9758922     -105628         493.10218      49031.021      497.97437    
     49500  -105629.82      1.7730129     -105628.05      442.47177      51356.079      497.97437    
     49600  -105630.11      2.0943838     -105628.02      522.67283      47628.993      497.97437    
     49700  -105629.83      1.8556521     -105627.97      463.09514      50843.57       497.97437    
     49800  -105630.13      2.2908473     -105627.84      571.70212      50912.84       497.97437    
     49900  -105629.47      1.8323544     -105627.64      457.28098      55530.061      497.97437    
     50000  -105629.55      2.1951802     -105627.35      547.82752      52894.858      497.97437    
     50100  -105629.55      2.5096288     -105627.04      626.30108      57908.049      497.97437    
     50200  -105629.15      2.111739      -105627.04      527.004        61946.913      497.97437    
     50300  -105629.63      2.4637866     -105627.17      614.86074      53780.626      497.97437    
     50400  -105629.73      2.1187599     -105627.61      528.75612      51868.695      497.97437    
     50500  -105629.85      1.9176779     -105627.93      478.57426      49847.423      497.97437    
     50600  -105630.17      2.0735749     -105628.1       517.47979      50179.719      497.97437    
     50700  -105630.03      1.8645616     -105628.16      465.3186       50005.148      497.97437    
     50800  -105629.97      1.8173317     -105628.15      453.53193      49001.02       497.97437    
     50900  -105629.99      1.9245533     -105628.07      480.29007      51017.235      497.97437    
     51000  -105629.75      1.8504433     -105627.9       461.79524      52294.713      497.97437    
     51100  -105629.95      2.3423002     -105627.61      584.54268      51939.082      497.97437    
     51200  -105629.61      2.2343321     -105627.38      557.59824      49691.779      497.97437    
     51300  -105629.41      2.1465821     -105627.26      535.69942      55024.462      497.97437    
     51400  -105629.65      2.5190657     -105627.13      628.65614      56589.102      497.97437    
     51500  -105629.23      2.0632819     -105627.17      514.91108      57995.932      497.97437    
     51600  -105629.38      2.0790339     -105627.3       518.84212      55357.975      497.97437    
     51700  -105629.98      2.3493657     -105627.63      586.30594      53843.305      497.97437    
     51800  -105629.82      1.8252617     -105627.99      455.51093      52033.386      497.97437    
     51900  -105629.96      1.7847999     -105628.18      445.41331      52279.636      497.97437    
     52000  -105630.17      1.9199241     -105628.25      479.13482      49226.054      497.97437    
     52100  -105630.15      1.8769778     -105628.28      468.41716      48692.787      497.97437    
     52200  -105630.23      1.9801197     -105628.25      494.15719      47697.58       497.97437    
     52300  -105629.62      1.4638737     -105628.16      365.32323      52811.972      497.97437    
     52400  -105630.13      2.3608742     -105627.77      589.17799      51247.922      497.97437    
     52500  -105629.73      2.3006745     -105627.43      574.15459      55033.57       497.97437    
     52600  -105629.47      2.0911253     -105627.38      521.85966      57152.786      497.97437    
     52700  -105629.39      2.0164802     -105627.37      503.23129      55256.809      497.97437    
     52800  -105629.46      2.0799197     -105627.38      519.06321      54110.321      497.97437    
     52900  -105629.97      2.4973845     -105627.47      623.2454       52113.533      497.97437    
     53000  -105630         1.9885331     -105628.01      496.25682      52926.907      497.97437    
     53100  -105629.79      1.4483736     -105628.35      361.45502      49825.431      497.97437    
     53200  -105630.4       2.037671      -105628.37      508.51965      47288.067      497.97437    
     53300  -105630.18      1.8189423     -105628.36      453.93386      46739.443      497.97437    
     53400  -105630.19      1.9095948     -105628.28      476.55705      50665.051      497.97437    
     53500  -105629.96      1.8250779     -105628.13      455.46506      51966.597      497.97437    
     53600  -105629.79      1.9210552     -105627.87      479.4171       56582.872      497.97437    
     53700  -105629.57      2.0032662     -105627.57      499.93361      55160.182      497.97437    
     53800  -105629.73      2.381874      -105627.34      594.41868      52125.803      497.97437    
     53900  -105629.71      2.3534855     -105627.36      587.33406      54203.031      497.97437    
     54000  -105629.69      2.1777455     -105627.51      543.47652      58411.852      497.97437    
     54100  -105629.44      1.8130592     -105627.63      452.46568      56601.396      497.97437    
     54200  -105629.73      2.0880898     -105627.65      521.10211      55462.048      497.97437    
     54300  -105629.99      2.2849869     -105627.71      570.23961      49767.852      497.97437    
     54400  -105629.79      1.930973      -105627.86      481.89217      52674.397      497.97437    
     54500  -105630         2.0080287     -105627.99      501.12214      53700.172      497.97437    
     54600  -105629.91      1.8103429     -105628.1       451.78782      49026.278      497.97437    
     54700  -105630.06      1.8899808     -105628.17      471.66219      49887.067      497.97437    
     54800  -105630.01      1.7256703     -105628.28      430.65697      48616.68       497.97437    
     54900  -105630.4       1.9579941     -105628.45      488.63555      47048.488      497.97437    
     55000  -105630.1       1.5041726     -105628.6       375.38019      49128.62       497.97437    
     55100  -105630.17      1.5950123     -105628.57      398.05008      47844.91       497.97437    
     55200  -105630.45      2.0995984     -105628.35      523.9742       44749.677      497.97437    
     55300  -105630.11      2.0010786     -105628.11      499.38767      49758.658      497.97437    
     55400  -105629.4       1.5026448     -105627.9       374.9989       61464.887      497.97437    
     55500  -105629.67      2.0821657     -105627.58      519.62369      55781.333      497.97437    
     55600  -105630.2       2.8014225     -105627.4       699.12088      49517.401      497.97437    
     55700  -105629.39      1.8118327     -105627.57      452.15962      54853.51       497.97437    
     55800  -105629.65      2.005053      -105627.64      500.37951      57500.688      497.97437    
     55900  -105629.92      2.1971093     -105627.72      548.30895      56482.867      497.97437    
     56000  -105629.92      2.0189834     -105627.9       503.85597      52780.557      497.97437    
     56100  -105629.78      1.6645832     -105628.12      415.41214      52991.854      497.97437    
     56200  -105630.05      1.7921742     -105628.26      447.25364      49175.338      497.97437    
     56300  -105630.67      2.1580761     -105628.51      538.56786      45865.546      497.97437    
     56400  -105630.03      1.1473791     -105628.88      286.33906      50701.832      497.97437    
     56500  -105630.39      1.4509485     -105628.94      362.09762      45622.072      497.97437    
     56600  -105630.75      1.9551735     -105628.79      487.93162      41108.414      497.97437    
     56700  -105630.26      1.6599835     -105628.6       414.26422      47864.844      497.97437    
     56800  -105629.89      1.5604776     -105628.33      389.43162      52953.587      497.97437    
     56900  -105630.06      1.9726296     -105628.09      492.28797      46714.753      497.97437    
     57000  -105629.98      2.0001786     -105627.98      499.16306      51742.063      497.97437    
     57100  -105629.81      1.9054206     -105627.91      475.51532      57520.725      497.97437    
     57200  -105629.87      2.071657      -105627.8       517.00117      54269.267      497.97437    
     57300  -105629.96      2.2553958     -105627.71      562.85488      52613.423      497.97437    
     57400  -105629.38      1.6765835     -105627.7       418.40692      57208.974      497.97437    
     57500  -105629.72      2.1624746     -105627.56      539.66554      56837.596      497.97437    
     57600  -105630.35      2.9737765     -105627.38      742.13341      49305.42       497.97437    
     57700  -105629.48      1.7957358     -105627.68      448.14248      61491.745      497.97437    
     57800  -105629.57      1.6317205     -105627.93      407.21094      57199.24       497.97437    
     57900  -105629.91      1.871229      -105628.03      466.9825       51226.375      497.97437    
     58000  -105630.5       2.3712764     -105628.13      591.77397      46874.224      497.97437    
     58100  -105629.95      1.5563556     -105628.4       388.40293      55492.742      497.97437    
     58200  -105630.27      1.6782643     -105628.59      418.82639      50886.061      497.97437    
     58300  -105630.41      1.6036972     -105628.81      400.21747      47109.677      497.97437    
     58400  -105630.35      1.3453557     -105629         335.74595      48328.809      497.97437    
     58500  -105630.6       1.5455442     -105629.06      385.70485      44773.87       497.97437    
     58600  -105630.76      1.838596      -105628.92      458.83864      42409.46       497.97437    
     58700  -105630.13      1.5430569     -105628.59      385.08411      51229.206      497.97437    
     58800  -105629.81      1.5652613     -105628.24      390.62544      55427.337      497.97437    
     58900  -105630.16      2.1979677     -105627.97      548.52318      52902.752      497.97437    
     59000  -105629.84      1.9888282     -105627.85      496.33047      54794.937      497.97437    
     59100  -105629.61      1.8532201     -105627.76      462.48822      54976.165      497.97437    
     59200  -105629.93      2.3367859     -105627.6       583.16653      50423.94       497.97437    
     59300  -105629.93      2.3535127     -105627.57      587.34086      54170.511      497.97437    
     59400  -105629.38      1.6590553     -105627.72      414.0326       64068.258      497.97437    
     59500  -105629.55      1.7895519     -105627.76      446.59922      60233.052      497.97437    
     59600  -105630.34      2.5999382     -105627.74      648.83863      50730.308      497.97437    
     59700  -105629.73      1.7256074     -105628.01      430.64128      55335.486      497.97437    
     59800  -105629.94      1.7063943     -105628.24      425.84647      53322.488      497.97437    
     59900  -105630.28      1.8883161     -105628.4       471.24673      47695.736      497.97437    
     60000  -105630.38      1.8446703     -105628.53      460.35453      48016.324      497.97437    
     60100  -105630.07      1.4669249     -105628.6       366.08467      50683.715      497.97437    
     60200  -105630.23      1.7790898     -105628.45      443.98831      47315.524      497.97437    
     60300  -105630.24      2.2536946     -105627.99      562.43032      49514.717      497.97437    
     60400  -105629.61      1.9628994     -105627.65      489.8597       59761.439      497.97437    
     60500  -105629.13      1.6355668     -105627.49      408.17082      62014.803      497.97437    
     60600  -105629.92      2.654819      -105627.27      662.53462      49129.007      497.97437    
     60700  -105629.87      2.4727402     -105627.39      617.09519      56762.924      497.97437    
     60800  -105629.34      1.711011      -105627.63      426.99862      59921.113      497.97437    
     60900  -105629.97      2.2441799     -105627.73      560.05584      54514.12       497.97437    
     61000  -105629.9       2.0100412     -105627.89      501.62436      47404.485      497.97437    
     61100  -105629.86      1.8501347     -105628.01      461.71823      56930.224      497.97437    
     61200  -105629.87      1.8361395     -105628.03      458.22559      58516.341      497.97437    
     61300  -105630.13      2.1345283     -105628         532.69128      49959.756      497.97437    
     61400  -105630.1       2.0782874     -105628.02      518.65583      50995.106      497.97437    
     61500  -105629.55      1.4905554     -105628.06      371.98188      53639.821      497.97437    
     61600  -105630.18      2.3969657     -105627.79      598.18496      54095.137      497.97437    
     61700  -105629.73      2.3658641     -105627.36      590.42327      55523.251      497.97437    
     61800  -105629.21      2.0298064     -105627.18      506.55695      63445.866      497.97437    
     61900  -105629.19      2.1443526     -105627.04      535.14301      61507.579      497.97437    
     62000  -105629.74      2.7599564     -105626.98      688.77263      58517.163      497.97437    
     62100  -105629.26      1.9739582     -105627.28      492.61951      57861.763      497.97437    
     62200  -105629.86      2.2560254     -105627.61      563.012        53976.432      497.97437    
     62300  -105629.86      1.9291604     -105627.93      481.43983      48728.712      497.97437    
     62400  -105630.2       2.0926786     -105628.11      522.2473       52561.115      497.97437    
     62500  -105629.87      1.6559233     -105628.21      413.25096      52168.777      497.97437    
     62600  -105630.08      1.9083106     -105628.17      476.23656      50019.073      497.97437    
     62700  -105630.21      2.124419      -105628.08      530.16842      51118.728      497.97437    
     62800  -105629.82      1.8064654     -105628.01      450.82014      55461.614      497.97437    
     62900  -105629.78      1.9711515     -105627.81      491.91908      51247.206      497.97437    
     63000  -105629.62      2.3332082     -105627.29      582.27369      54633.003      497.97437    
     63100  -105629.22      2.2962179     -105626.93      573.04241      60294.158      497.97437    
     63200  -105629.49      2.6105178     -105626.88      651.47887      62180.899      497.97437    
     63300  -105629.12      2.0614846     -105627.06      514.46254      56711.258      497.97437    
     63400  -105629.82      2.5618814     -105627.25      639.3412       57940.443      497.97437    
     63500  -105629.43      1.9004879     -105627.53      474.28434      56414.327      497.97437    
     63600  -105630.11      2.4203073     -105627.69      604.01006      53390.007      497.97437    
     63700  -105629.61      1.7117822     -105627.89      427.19107      54699.26       497.97437    
     63800  -105629.76      1.8369458     -105627.92      458.42682      56119.361      497.97437    
     63900  -105630.24      2.3363333     -105627.9       583.05357      51582.344      497.97437    
     64000  -105629.97      1.9516168     -105628.01      487.04402      54057.023      497.97437    
     64100  -105629.76      1.6458627     -105628.12      410.74026      56467.429      497.97437    
     64200  -105629.95      1.8510787     -105628.1       461.95381      51876.06       497.97437    
     64300  -105630.28      2.3808764     -105627.9       594.16972      49963.888      497.97437    
     64400  -105629.76      2.0804802     -105627.68      519.20308      57751.937      497.97437    
     64500  -105629.4       1.9194175     -105627.48      479.0084       61648.042      497.97437    
     64600  -105629.43      2.2308146     -105627.2       556.72043      56112.282      497.97437    
     64700  -105629.67      2.6322114     -105627.03      656.89269      56379.011      497.97437    
     64800  -105629.48      2.2696549     -105627.21      566.41337      55663.533      497.97437    
     64900  -105629.53      1.9872126     -105627.54      495.92727      57600.805      497.97437    
     65000  -105629.86      2.0395463     -105627.82      508.98764      54815.429      497.97437    
     65100  -105630.07      2.0750893     -105628         517.85771      54469.31       497.97437    
     65200  -105629.98      1.881909      -105628.1       469.64778      50570.42       497.97437    
     65300  -105630.03      1.9047738     -105628.12      475.3539       49207.428      497.97437    
     65400  -105629.99      1.9060919     -105628.09      475.68285      52275.368      497.97437    
     65500  -105629.99      1.9739729     -105628.02      492.62318      56498.435      497.97437    
     65600  -105629.81      1.8834326     -105627.93      470.02801      54327.678      497.97437    
     65700  -105629.99      2.2622498     -105627.73      564.56537      48430.442      497.97437    
     65800  -105629.68      2.1985193     -105627.49      548.66082      55737.007      497.97437    
     65900  -105629.57      2.5059825     -105627.06      625.3911       59486.045      497.97437    
     66000  -105628.9       2.2243351     -105626.68      555.10338      59050.596      497.97437    
     66100  -105629.08      2.6376525     -105626.44      658.25057      56861.267      497.97437    
     66200  -105629.09      2.5310629     -105626.56      631.65015      59748.937      497.97437    
     66300  -105629.34      2.3275809     -105627.01      580.86934      56138.186      497.97437    
     66400  -105629.89      2.3965975     -105627.49      598.09306      55844.888      497.97437    
     66500  -105629.67      1.9572807     -105627.71      488.45751      52860.321      497.97437    
     66600  -105629.91      2.09069       -105627.82      521.75102      53030.628      497.97437    
     66700  -105629.89      1.9374683     -105627.95      483.51312      51810.716      497.97437    
     66800  -105630.03      1.9638129     -105628.07      490.08768      51268.315      497.97437    
     66900  -105629.96      1.8008637     -105628.16      449.4222       50522.36       497.97437    
     67000  -105630.29      2.0731966     -105628.21      517.38538      48982.603      497.97437    
     67100  -105629.85      1.5767483     -105628.27      393.49213      53302.829      497.97437    
     67200  -105630.3       2.1149751     -105628.19      527.81159      51527.564      497.97437    
     67300  -105629.76      1.732437      -105628.02      432.34567      51336.089      497.97437    
     67400  -105630.07      2.407822      -105627.66      600.89424      49334.947      497.97437    
     67500  -105629.54      2.1291804     -105627.41      531.35666      54735.283      497.97437    
     67600  -105629.43      2.1408039     -105627.29      534.25742      58770.071      497.97437    
     67700  -105629.72      2.4616282     -105627.26      614.32208      58905.046      497.97437    
     67800  -105629.49      2.0212418     -105627.47      504.41959      57865.894      497.97437    
     67900  -105629.83      1.9514408     -105627.87      487.00009      58610.763      497.97437    
     68000  -105629.93      1.7136663     -105628.22      427.66128      53841.538      497.97437    
     68100  -105630.44      2.0955109     -105628.34      522.95412      50132.523      497.97437    
     68200  -105630.15      1.7478943     -105628.41      436.20318      48336.629      497.97437    
     68300  -105630         1.6433218     -105628.36      410.10614      47172.849      497.97437    
     68400  -105630.08      1.8982501     -105628.18      473.72587      51161.294      497.97437    
     68500  -105630.17      2.1953308     -105627.98      547.86509      49622.955      497.97437    
     68600  -105629.76      1.8868266     -105627.87      470.87502      51170.598      497.97437    
     68700  -105629.59      1.8328644     -105627.76      457.40826      55643.404      497.97437    
     68800  -105629.81      2.2405151     -105627.57      559.14125      54114.753      497.97437    
     68900  -105629.69      2.1929285     -105627.5       547.26558      53367.621      497.97437    
     69000  -105629.89      2.3220827     -105627.57      579.49722      49506.591      497.97437    
     69100  -105629.4       1.6130884     -105627.79      402.56112      54982.985      497.97437    
     69200  -105630.28      1.945442      -105628.34      485.50304      50143.413      497.97437    
     69300  -105630.23      1.4910592     -105628.74      372.10762      48299.936      497.97437    
     69400  -105630.58      1.8027918     -105628.78      449.90336      43084.167      497.97437    
     69500  -105630.26      1.5582684     -105628.7       388.88028      45978.132      497.97437    
     69600  -105630.27      1.8030603     -105628.47      449.97037      49918.9        497.97437    
     69700  -105629.98      1.8327894     -105628.15      457.38955      51923.815      497.97437    
     69800  -105629.72      1.8323586     -105627.89      457.28204      52790.408      497.97437    
     69900  -105629.88      2.2076077     -105627.67      550.92893      52305.622      497.97437    
     70000  -105629.77      2.2037026     -105627.57      549.95437      53634.552      497.97437    
     70100  -105629.96      2.3489469     -105627.61      586.20142      52857.164      497.97437    
     70200  -105629.47      1.6832161     -105627.78      420.06214      54528.079      497.97437    
     70300  -105629.65      1.7856305     -105627.86      445.62061      56216.867      497.97437    
     70400  -105629.98      2.1080864     -105627.87      526.09246      53222.037      497.97437    
     70500  -105630.25      2.2767135     -105627.98      568.1749       50270.212      497.97437    
     70600  -105629.82      1.5370861     -105628.29      383.59405      49217.748      497.97437    
     70700  -105630.04      1.6195533     -105628.42      404.1745       50427.463      497.97437    
     70800  -105630.55      2.1085157     -105628.44      526.1996       45236.078      497.97437    
     70900  -105630.26      1.7748192     -105628.48      442.92255      48266.489      497.97437    
     71000  -105630.03      1.6041856     -105628.43      400.33935      50824.129      497.97437    
     71100  -105629.69      1.5301325     -105628.16      381.85873      50715.91       497.97437    
     71200  -105630.34      2.6315892     -105627.71      656.73743      47533.355      497.97437    
     71300  -105629.65      2.0143878     -105627.64      502.70911      53082.809      497.97437    
     71400  -105629.63      1.987912      -105627.64      496.10181      56283.978      497.97437    
     71500  -105629.73      2.1003363     -105627.63      524.15835      57663.4        497.97437    
     71600  -105629.74      2.0729139     -105627.67      517.31484      53298.726      497.97437    
     71700  -105629.78      2.0010712     -105627.78      499.38581      53569.885      497.97437    
     71800  -105629.77      1.8180148     -105627.96      453.70239      51039.459      497.97437    
     71900  -105630.28      2.0783657     -105628.2       518.67537      47836.642      497.97437    
     72000  -105630.04      1.5345873     -105628.5       382.97044      50379.734      497.97437    
     72100  -105630.37      1.744852      -105628.63      435.44395      46497.407      497.97437    
     72200  -105630.36      1.7215907     -105628.64      429.63887      46252.228      497.97437    
     72300  -105630.26      1.7508929     -105628.51      436.95152      49341.634      497.97437    
     72400  -105630.05      1.9683152     -105628.09      491.21126      52471.035      497.97437    
     72500  -105629.65      1.9934316     -105627.66      497.4793       51746.093      497.97437    
     72600  -105629.46      1.9508571     -105627.51      486.85443      57770.598      497.97437    
     72700  -105629.51      2.1086259     -105627.4       526.22709      56682.697      497.97437    
     72800  -105629.99      2.5766169     -105627.41      643.01857      54231.605      497.97437    
     72900  -105629.56      1.9026817     -105627.65      474.83181      50850.923      497.97437    
     73000  -105629.83      1.9557598     -105627.87      488.07794      52056.21       497.97437    
     73100  -105629.97      1.9206406     -105628.05      479.31361      52177.623      497.97437    
     73200  -105630.25      2.0412438     -105628.21      509.41126      46768.208      497.97437    
     73300  -105630.09      1.7192398     -105628.38      429.05219      50882.154      497.97437    
     73400  -105629.92      1.4673187     -105628.45      366.18295      50195.401      497.97437    
     73500  -105630.41      2.1053587     -105628.31      525.41173      46182.806      497.97437    
     73600  -105630.16      2.2756614     -105627.89      567.91236      47868.341      497.97437    
     73700  -105629.43      1.8644072     -105627.57      465.28007      55074.928      497.97437    
     73800  -105629.15      1.8515204     -105627.3       462.06403      60312.156      497.97437    
     73900  -105629.72      2.6689692     -105627.05      666.06593      56950.618      497.97437    
     74000  -105629.53      2.396788      -105627.13      598.14061      57164.488      497.97437    
[...]
    181900  -105629.85      2.2371138     -105627.61      558.29244      53589.385      497.97437    
    182000  -105629.4       2.111873      -105627.29      527.03744      59187.569      497.97437    
    182100  -105629.27      2.1733355     -105627.1       542.37598      60814.056      497.97437    
    182200  -105629.27      2.2292714     -105627.04      556.3353       58293.816      497.97437    
    182300  -105629.74      2.5818998     -105627.15      644.33697      55330.883      497.97437    
    182400  -105629.36      2.0108596     -105627.35      501.82862      56538.359      497.97437    
    182500  -105629.58      2.1225467     -105627.46      529.70115      56741.112      497.97437    
    182600  -105629.58      2.0164762     -105627.57      503.23029      55480.661      497.97437    
    182700  -105630.3       2.5546183     -105627.75      637.52863      50197.307      497.97437    
    182800  -105629.59      1.5213141     -105628.07      379.65801      54811.64       497.97437    
    182900  -105629.99      1.8420639     -105628.15      459.70408      52306.177      497.97437    
    183000  -105630.02      1.8862421     -105628.14      470.72916      49411.751      497.97437    
    183100  -105630.44      2.3342266     -105628.1       582.52785      46456.044      497.97437    
    183200  -105629.65      1.480258      -105628.17      369.41208      55528.006      497.97437    
    183300  -105629.93      1.8986241     -105628.03      473.8192       56019.485      497.97437    
    183400  -105629.75      2.2411526     -105627.5       559.30036      52893.406      497.97437    
    183500  -105629.86      2.7078631     -105627.15      675.77229      53431.378      497.97437    
    183600  -105629.05      1.8730571     -105627.18      467.43872      58593.058      497.97437    
    183700  -105629.51      2.2980508     -105627.21      573.49982      55791.027      497.97437    
    183800  -105629.7       2.297788      -105627.4       573.43424      55162.957      497.97437    
    183900  -105629.81      2.0142269     -105627.8       502.66895      55222.295      497.97437    
    184000  -105629.85      1.7889842     -105628.06      446.45755      55329.001      497.97437    
    184100  -105630.15      2.0025206     -105628.15      499.74753      50671.857      497.97437    
    184200  -105630.2       1.9978722     -105628.2       498.58748      53079.754      497.97437    
    184300  -105629.85      1.6403133     -105628.21      409.35536      56154.305      497.97437    
    184400  -105629.96      1.8701463     -105628.09      466.71231      51935.334      497.97437    
    184500  -105630.28      2.3621188     -105627.92      589.48859      50712.912      497.97437    
    184600  -105629.77      1.8785855     -105627.89      468.81839      52821.051      497.97437    
    184700  -105629.71      1.8911328     -105627.82      471.94969      57657.308      497.97437    
    184800  -105629.74      2.2324736     -105627.51      557.13444      53894.236      497.97437    
    184900  -105629.72      2.8658873     -105626.85      715.20868      58404.077      497.97437    
    185000  -105628.58      1.9552097     -105626.63      487.94065      67356.35       497.97437    
    185100  -105629.3       2.7557417     -105626.55      687.72082      63433.995      497.97437    
    185200  -105629.46      2.5667909     -105626.9       640.56641      56061.96       497.97437    
    185300  -105629.48      2.1261786     -105627.35      530.60753      56740.71       497.97437    
    185400  -105629.6       2.0396841     -105627.56      509.02202      56375.4        497.97437    
    185500  -105629.79      2.1357564     -105627.66      532.99775      49631.382      497.97437    
    185600  -105630.19      2.3633262     -105627.83      589.7899       49439.855      497.97437    
    185700  -105629.88      1.7678106     -105628.11      441.17348      52474.18       497.97437    
    185800  -105629.76      1.5399525     -105628.22      384.3094       52881.627      497.97437    
    185900  -105630.31      2.1366844     -105628.18      533.22936      46520.67       497.97437    
    186000  -105629.89      1.767042      -105628.13      440.98168      50916.373      497.97437    
    186100  -105630.08      2.1504152     -105627.93      536.65599      51900.377      497.97437    
    186200  -105629.87      2.2863389     -105627.59      570.57702      53372.132      497.97437    
    186300  -105629.2       1.9516929     -105627.24      487.06302      59149.597      497.97437    
    186400  -105629.14      2.2381325     -105626.9       558.54667      55744.074      497.97437    
    186500  -105629.61      2.8515567     -105626.76      711.63233      55248.803      497.97437    
    186600  -105629.72      2.6386497     -105627.08      658.49942      55141.086      497.97437    
    186700  -105629.19      1.7983808     -105627.39      448.80257      61582.48       497.97437    
    186800  -105629.31      1.8696819     -105627.44      466.59641      58524.859      497.97437    
    186900  -105629.98      2.5210971     -105627.46      629.16309      52441.713      497.97437    
    187000  -105629.98      2.2444591     -105627.73      560.12551      49288.325      497.97437    
    187100  -105629.69      1.6775181     -105628.01      418.64015      53199.103      497.97437    
    187200  -105629.82      1.7248814     -105628.09      430.4601       53302.071      497.97437    
    187300  -105630.26      2.1854631     -105628.07      545.40253      46572.032      497.97437    
    187400  -105629.94      1.8421965     -105628.1       459.73717      49725.049      497.97437    
    187500  -105629.9       1.829245      -105628.07      456.505        50152.139      497.97437    
    187600  -105630.09      2.2867787     -105627.81      570.68677      50683.324      497.97437    
    187700  -105629.44      2.0166689     -105627.42      503.27837      55394.991      497.97437    
    187800  -105629.32      2.269433      -105627.05      566.358        58651.066      497.97437    
    187900  -105629.36      2.4629912     -105626.89      614.66224      56002.071      497.97437    
    188000  -105629.34      2.3426931     -105626.99      584.64072      56998.975      497.97437    
    188100  -105629.78      2.458385      -105627.32      613.5127       55537.994      497.97437    
    188200  -105629.38      1.6934259     -105627.69      422.6101       60238.443      497.97437    
    188300  -105630.05      2.2688934     -105627.78      566.22333      52403.449      497.97437    
    188400  -105629.85      1.9341736     -105627.92      482.6909       53334.885      497.97437    
    188500  -105629.81      1.8375707     -105627.97      458.58277      51086.149      497.97437    
    188600  -105630.17      2.1967509     -105627.97      548.21951      48165.484      497.97437    
    188700  -105629.88      1.8449675     -105628.03      460.4287       51960.144      497.97437    
    188800  -105629.96      1.9176937     -105628.04      478.5782       51414.07       497.97437    
    188900  -105629.95      1.9606786     -105627.99      489.30546      53693.308      497.97437    
    189000  -105629.76      1.9127265     -105627.84      477.33858      54061.574      497.97437    
    189100  -105630.06      2.5243758     -105627.54      629.98133      52207.878      497.97437    
    189200  -105629.32      1.932539      -105627.39      482.28298      57268.226      497.97437    
    189300  -105629.44      2.1802503     -105627.26      544.10164      58270.246      497.97437    
    189400  -105629.47      2.3083504     -105627.16      576.07018      56156.714      497.97437    
    189500  -105629.67      2.3896315     -105627.28      596.35463      56506.042      497.97437    
    189600  -105629.69      2.0396266     -105627.65      509.00767      56940.951      497.97437    
    189700  -105629.74      1.7160614     -105628.02      428.259        53713.083      497.97437    
    189800  -105630.17      2.0290467     -105628.14      506.36736      46279.658      497.97437    
    189900  -105630.29      2.0393363     -105628.25      508.93524      45927.861      497.97437    
    190000  -105629.85      1.55145       -105628.3       387.17869      50435.394      497.97437    
    190100  -105630.22      2.0218886     -105628.2       504.58099      49615.437      497.97437    
    190200  -105629.59      1.5362222     -105628.06      383.37845      53886.702      497.97437    
    190300  -105630.39      2.6524595     -105627.74      661.94579      49711.764      497.97437    
    190400  -105629.6       1.9442797     -105627.66      485.21298      52465.073      497.97437    
    190500  -105629.65      2.0108527     -105627.64      501.82688      54423.839      497.97437    
    190600  -105629.54      1.9136813     -105627.63      477.57687      56374.789      497.97437    
    190700  -105629.68      2.0825303     -105627.6       519.71468      57400.522      497.97437    
    190800  -105630.05      2.40664       -105627.64      600.59928      51694.077      497.97437    
    190900  -105629.68      1.8547717     -105627.83      462.87542      51696.591      497.97437    
    191000  -105629.97      2.0128933     -105627.96      502.33613      52154.403      497.97437    
    191100  -105629.86      1.7803745     -105628.08      444.30892      52320.785      497.97437    
    191200  -105630.19      2.0432393     -105628.15      509.90927      48920.158      497.97437    
    191300  -105630.13      1.8486343     -105628.28      461.34379      48107.65       497.97437    
    191400  -105630.08      1.6134232     -105628.46      402.64469      50383.242      497.97437    
    191500  -105630.24      1.6489837     -105628.59      411.51914      48626.385      497.97437    
    191600  -105630.37      1.7474546     -105628.62      436.09346      44847.774      497.97437    
    191700  -105630.29      1.77479       -105628.52      442.91527      45849.57       497.97437    
    191800  -105630.24      1.9982641     -105628.24      498.6853       53606.41       497.97437    
    191900  -105629.57      1.6269712     -105627.94      406.02571      54739.482      497.97437    
    192000  -105630.11      2.5006324     -105627.61      624.05594      56347.646      497.97437    
    192100  -105629.06      1.5233754     -105627.54      380.17243      60966.106      497.97437    
    192200  -105629.92      2.526349      -105627.39      630.47375      53751.494      497.97437    
    192300  -105629.85      2.3871864     -105627.46      595.74443      50660.602      497.97437    
    192400  -105629.51      1.8233105     -105627.69      455.024        56264.339      497.97437    
    192500  -105629.77      1.9323963     -105627.84      482.24737      53138.2        497.97437    
    192600  -105629.76      1.8293511     -105627.94      456.5315       50681.468      497.97437    
    192700  -105630.37      2.3583317     -105628.01      588.54348      45976.994      497.97437    
    192800  -105629.9       1.5611411     -105628.33      389.5972       49458.971      497.97437    
    192900  -105630.39      1.6876167     -105628.7       421.16036      45957.046      497.97437    
    193000  -105630.38      1.4672204     -105628.91      366.15841      44928.296      497.97437    
    193100  -105630.53      1.648176      -105628.88      411.31757      46678.632      497.97437    
    193200  -105630.34      1.6177082     -105628.72      403.71403      46696.203      497.97437    
    193300  -105630.22      1.7114959     -105628.51      427.11963      48132.694      497.97437    
    193400  -105630.04      1.7264861     -105628.32      430.86056      49776.679      497.97437    
    193500  -105630.14      1.9931842     -105628.15      497.41754      53072.549      497.97437    
    193600  -105629.88      1.8596929     -105628.02      464.10357      55060.295      497.97437    
    193700  -105629.74      1.8815523     -105627.86      469.55877      55509.824      497.97437    
    193800  -105629.92      2.2554844     -105627.67      562.87699      53551.242      497.97437    
    193900  -105629.7       2.1191493     -105627.58      528.8533       54763.724      497.97437    
    194000  -105629.78      2.2100327     -105627.57      551.5341       55300.432      497.97437    
    194100  -105629.69      1.9935923     -105627.69      497.51939      54367.47       497.97437    
    194200  -105629.71      1.7512079     -105627.96      437.03012      57177.239      497.97437    
    194300  -105630.26      1.9557725     -105628.3       488.0811       49677.977      497.97437    
    194400  -105630.61      1.9813169     -105628.63      494.45596      46275.929      497.97437    
    194500  -105630.08      1.2999623     -105628.78      324.41761      49459.173      497.97437    
    194600  -105630.28      1.6005021     -105628.68      399.4201       47697.537      497.97437    
    194700  -105630.35      1.915103      -105628.44      477.93167      46221.301      497.97437    
    194800  -105630.33      2.0894479     -105628.25      521.44105      48361.132      497.97437    
    194900  -105629.73      1.5771369     -105628.15      393.5891       51548.424      497.97437    
    195000  -105629.76      1.7669758     -105627.99      440.96515      52202.239      497.97437    
    195100  -105630.02      2.2318668     -105627.79      556.98299      50833.78       497.97437    
    195200  -105629.98      2.2447942     -105627.73      560.20916      51644.411      497.97437    
    195300  -105629.91      2.1039049     -105627.81      525.04894      51481.861      497.97437    
    195400  -105629.55      1.6655416     -105627.88      415.6513       53060.665      497.97437    
    195500  -105630.04      2.1896323     -105627.85      546.443        54599.551      497.97437    
    195600  -105629.66      1.8159632     -105627.84      453.1904       52849.381      497.97437    
    195700  -105630.33      2.5826913     -105627.75      644.5345       48452.24       497.97437    
    195800  -105629.41      1.6167414     -105627.8       403.47278      57534.255      497.97437    
    195900  -105629.9       2.130631      -105627.77      531.71868      53865.746      497.97437    
    196000  -105629.68      1.9464916     -105627.74      485.76499      52578.819      497.97437    
    196100  -105629.98      2.2590601     -105627.72      563.76935      49530.054      497.97437    
    196200  -105629.94      2.1149478     -105627.83      527.80478      48657.698      497.97437    
    196300  -105629.74      1.7559423     -105627.99      438.21163      49684.789      497.97437    
    196400  -105630.04      1.9415751     -105628.1       484.53802      50704.64       497.97437    
    196500  -105629.89      1.6996526     -105628.19      424.16402      50846.757      497.97437    
    196600  -105630.32      2.1333234     -105628.19      532.39057      47097.483      497.97437    
    196700  -105630.16      1.9236771     -105628.23      480.07141      49524.789      497.97437    
    196800  -105629.8       1.532149      -105628.27      382.36196      50316.135      497.97437    
    196900  -105629.9       1.7970547     -105628.11      448.47161      48600.087      497.97437    
    197000  -105630.31      2.5864978     -105627.73      645.48445      48967.66       497.97437    
    197100  -105629.73      2.1317818     -105627.6       532.00586      55072.91       497.97437    
    197200  -105629.29      1.7123679     -105627.58      427.33726      63759.218      497.97437    
    197300  -105629.45      2.0221247     -105627.43      504.63992      57598.989      497.97437    
    197400  -105629.97      2.784481      -105627.18      694.89297      52911.832      497.97437    
    197500  -105629.51      2.2196941     -105627.29      553.94518      56088.648      497.97437    
    197600  -105629.74      2.0099182     -105627.73      501.59367      58793.888      497.97437    
    197700  -105629.63      1.5652863     -105628.07      390.63167      52636.576      497.97437    
    197800  -105630.34      2.1670867     -105628.17      540.81652      46362.803      497.97437    
    197900  -105630.44      2.1503588     -105628.29      536.64192      48194.113      497.97437    
    198000  -105630.06      1.6478388     -105628.41      411.2334       49310.418      497.97437    
    198100  -105629.76      1.386904      -105628.38      346.11471      52772.716      497.97437    
    198200  -105630.18      2.0770902     -105628.1       518.35707      46998.967      497.97437    
    198300  -105630.12      2.274082      -105627.85      567.51819      51501.884      497.97437    
    198400  -105629.93      2.0996397     -105627.83      523.98449      52925.267      497.97437    
    198500  -105629.4       1.5690996     -105627.83      391.58332      58451.648      497.97437    
    198600  -105629.58      1.8677345     -105627.71      466.11042      55343.881      497.97437    
    198700  -105630.35      2.7652296     -105627.59      690.08863      48658.207      497.97437    
    198800  -105629.74      1.9593272     -105627.78      488.96822      51943.566      497.97437    
    198900  -105629.67      1.7419827     -105627.93      434.7279       51715.525      497.97437    
    199000  -105629.79      1.8363818     -105627.95      458.28606      50477.88       497.97437    
    199100  -105630.13      2.2268092     -105627.9       555.72084      54511.522      497.97437    
    199200  -105629.98      2.0530634     -105627.93      512.36096      52474.24       497.97437    
    199300  -105629.91      1.8059102     -105628.1       450.68158      51565.216      497.97437    
    199400  -105630.01      1.6663623     -105628.35      415.85612      52000.247      497.97437    
    199500  -105630.17      1.6820416     -105628.48      419.76903      50293.239      497.97437    
    199600  -105630.42      1.9191584     -105628.5       478.94374      46408.098      497.97437    
    199700  -105630.33      1.8530254     -105628.47      462.43964      45656.728      497.97437    
    199800  -105629.81      1.4439603     -105628.37      360.35364      52663.886      497.97437    
    199900  -105630.05      2.0597155     -105627.99      514.02106      52745.943      497.97437    
    200000  -105629.82      2.1239696     -105627.69      530.05626      50366.523      497.97437    
Loop time of 281.254 on 2 procs for 200000 steps with 32 atoms

Performance: 30.720 ns/day, 0.781 hours/ns, 711.101 timesteps/s, 22.755 katom-step/s
97.3% CPU use with 1 MPI tasks x 2 OpenMP threads

MPI task timing breakdown:
Section |  min time  |  avg time  |  max time  |%varavg| %total
---------------------------------------------------------------
Pair    | 276.6      | 276.6      | 276.6      |   0.0 | 98.34
Neigh   | 2.778      | 2.778      | 2.778      |   0.0 |  0.99
Comm    | 0.96238    | 0.96238    | 0.96238    |   0.0 |  0.34
Output  | 0.072945   | 0.072945   | 0.072945   |   0.0 |  0.03
Modify  | 0.66431    | 0.66431    | 0.66431    |   0.0 |  0.24
Other   |            | 0.1773     |            |       |  0.06

Nlocal:             32 ave          32 max          32 min
Histogram: 1 0 0 0 0 0 0 0 0 0
Nghost:            952 ave         952 max         952 min
Histogram: 1 0 0 0 0 0 0 0 0 0
Neighs:              0 ave           0 max           0 min
Histogram: 1 0 0 0 0 0 0 0 0 0
FullNghs:         4416 ave        4416 max        4416 min
Histogram: 1 0 0 0 0 0 0 0 0 0

Total # of neighbors = 4416
Ave neighs/atom = 138
Neighbor list builds = 20000
Dangerous builds not checked

write_restart   lammps.restart
System init for write_restart ...
Generated 0 of 0 mixed pair_coeff terms from geometric mixing rule
Total wall time: 0:04:45
