7.894833401362693 0.0 0.0 0.0 7.870043624482413 0.0 0.0 0.0 8.01469276206218
8.009515098425448 0.0 0.0 0.0 8.012943170887574 0.0 0.0 0.0 7.935579264551882
8.0091637247591 0.0 0.0 0.0 7.889314598781805 0.0 0.0 0.0 7.971744911837026
7.929704062684357 0.0 0.0 0.0 7.86629021929507 0.0 0.0 0.0 7.976402089909506
7.972291715235443 0.0 0.0 0.0 7.9629163001783265 0.0 0.0 0.0 7.899265523123886
7.935749383112588 0.0 0.0 0.0 7.991974167491941 0.0 0.0 0.0 7.883238529444532
8.02345362609348 0.0 0.0 0.0 7.990870380917913 0.0 0.0 0.0 8.011466586376095
7.960325431022944 0.0 0.0 0.0 7.96207670261777 0.0 0.0 0.0 7.938569861619958
7.8817188026080665 0.0 0.0 0.0 7.94935971337205 0.0 0.0 0.0 7.900697981484746
7.870412931551594 0.0 0.0 0.0 7.9358632854903775 0.0 0.0 0.0 7.968006051902834
8.012633010537066 0.0 0.0 0.0 7.906970419027114 0.0 0.0 0.0 7.938363915162398
8.022870472809874 0.0 0.0 0.0 7.941719137977402 0.0 0.0 0.0 7.956585516963519
7.931751449303477 0.0 0.0 0.0 7.969133793884044 0.0 0.0 0.0 7.951406329394851
7.933507788458003 0.0 0.0 0.0 7.905446971410227 0.0 0.0 0.0 7.95878394427203
7.867945378229041 0.0 0.0 0.0 7.904153662859651 0.0 0.0 0.0 7.959323695851793
7.95206656233217 0.0 0.0 0.0 7.908417668971529 0.0 0.0 0.0 7.8719494917166735
7.996081405814184 0.0 0.0 0.0 8.005420828896176 0.0 0.0 0.0 7.91870332605012
8.013697715080273 0.0 0.0 0.0 7.914207657947552 0.0 0.0 0.0 7.939915600217529
7.970905270949556 0.0 0.0 0.0 7.95934745830668 0.0 0.0 0.0 7.9314652316688985
7.927118502844342 0.0 0.0 0.0 7.978636845994328 0.0 0.0 0.0 7.941839161904124
7.875148009211942 0.0 0.0 0.0 7.897946562698611 0.0 0.0 0.0 7.928888019226804
7.8851579252851565 0.0 0.0 0.0 7.978250099751073 0.0 0.0 0.0 7.910185416540012
7.953144496305587 0.0 0.0 0.0 7.993124953688514 0.0 0.0 0.0 7.931957319367429
7.869072525682834 0.0 0.0 0.0 7.948203919001101 0.0 0.0 0.0 7.999470926505923
7.977437434409472 0.0 0.0 0.0 7.866271843760976 0.0 0.0 0.0 7.932612213465525
7.928243004412094 0.0 0.0 0.0 7.947468993697792 0.0 0.0 0.0 7.911926680309014
7.8998515888295096 0.0 0.0 0.0 7.886935331481773 0.0 0.0 0.0 7.932651772626329
7.973958623441756 0.0 0.0 0.0 8.005368046459491 0.0 0.0 0.0 7.886292922335637
7.880928741035995 0.0 0.0 0.0 7.866183523361517 0.0 0.0 0.0 8.007181219467391
7.974614803180115 0.0 0.0 0.0 7.935395647578075 0.0 0.0 0.0 7.91331393918807
7.997417578265276 0.0 0.0 0.0 7.937356972252504 0.0 0.0 0.0 7.958526136582172
7.952409998340391 0.0 0.0 0.0 8.0137071746076 0.0 0.0 0.0 7.942087770162545
7.943553688581387 0.0 0.0 0.0 7.912470562997968 0.0 0.0 0.0 7.917284356533249
7.973853317177293 0.0 0.0 0.0 7.882074265496582 0.0 0.0 0.0 7.930124705585893
7.975459899181854 0.0 0.0 0.0 7.91388934876017 0.0 0.0 0.0 7.93875683272582
7.898150813281862 0.0 0.0 0.0 8.007176887108404 0.0 0.0 0.0 7.894999451107362
8.012422398008141 0.0 0.0 0.0 7.9518725219463935 0.0 0.0 0.0 7.944396931849052
7.981570308406713 0.0 0.0 0.0 8.016250231396741 0.0 0.0 0.0 7.912689356645163
7.925671732356704 0.0 0.0 0.0 7.962224930386333 0.0 0.0 0.0 7.882920659032371
7.906380577226176 0.0 0.0 0.0 7.881451759266182 0.0 0.0 0.0 7.9479286071595
7.997457266555903 0.0 0.0 0.0 7.9567821988982 0.0 0.0 0.0 7.885780773285717
7.9894254148875135 0.0 0.0 0.0 7.889142147079846 0.0 0.0 0.0 7.946961618807387
7.873086334808195 0.0 0.0 0.0 7.97553093419672 0.0 0.0 0.0 7.968012136746977
7.869170952643588 0.0 0.0 0.0 7.895737273779712 0.0 0.0 0.0 7.880927494046838
7.9988802240691665 0.0 0.0 0.0 7.992441125488791 0.0 0.0 0.0 7.975547490455557
7.982943523262391 0.0 0.0 0.0 7.941041052708788 0.0 0.0 0.0 7.866472377257993
7.879712162633989 0.0 0.0 0.0 7.898489516717547 0.0 0.0 0.0 7.989460793635155
7.928470021434477 0.0 0.0 0.0 7.981765196918559 0.0 0.0 0.0 7.872162027342249
7.964489526475478 0.0 0.0 0.0 7.921696324249726 0.0 0.0 0.0 7.949133990668432
7.915551747424151 0.0 0.0 0.0 7.913066264175459 0.0 0.0 0.0 7.899111146444751
7.912784150624462 0.0 0.0 0.0 7.87031623808806 0.0 0.0 0.0 7.969376382869728
7.936349470066862 0.0 0.0 0.0 7.984229466419775 0.0 0.0 0.0 7.998895840240459
7.882768161012232 0.0 0.0 0.0 7.91444112348318 0.0 0.0 0.0 7.940209892601529
7.921981779682854 0.0 0.0 0.0 7.959880540516856 0.0 0.0 0.0 8.014962079830992
7.928536168585521 0.0 0.0 0.0 7.9688289893942725 0.0 0.0 0.0 7.883898509956384
7.909372545162206 0.0 0.0 0.0 8.017145655462587 0.0 0.0 0.0 7.947369170869166
7.957081045558528 0.0 0.0 0.0 8.0175071190185 0.0 0.0 0.0 7.873929548632442
7.96237387599648 0.0 0.0 0.0 7.995592899807138 0.0 0.0 0.0 7.918294174218964
7.900073843257018 0.0 0.0 0.0 7.963898539836691 0.0 0.0 0.0 7.953470442363591
7.904478714339353 0.0 0.0 0.0 7.902052039374051 0.0 0.0 0.0 7.888179679230385
7.9545034233766385 0.0 0.0 0.0 7.985183943080602 0.0 0.0 0.0 7.964215872056581
7.8806376935714 0.0 0.0 0.0 8.02000677118221 0.0 0.0 0.0 8.019675784399082
7.9464313542404135 0.0 0.0 0.0 7.873626150172862 0.0 0.0 0.0 7.948751712195851
8.020186486009104 0.0 0.0 0.0 7.869326778207273 0.0 0.0 0.0 7.936407617976253
7.914604520221198 0.0 0.0 0.0 7.96367506824657 0.0 0.0 0.0 7.92358759635165
7.938331767889354 0.0 0.0 0.0 7.895107551413196 0.0 0.0 0.0 7.89035249068423
7.969889250709517 0.0 0.0 0.0 7.984243021250045 0.0 0.0 0.0 8.015421227998822
7.980820464302476 0.0 0.0 0.0 8.007444481371389 0.0 0.0 0.0 7.896598865942692
7.908600475615218 0.0 0.0 0.0 7.927130326529585 0.0 0.0 0.0 7.976796337516449
7.885366950282457 0.0 0.0 0.0 7.896406464012853 0.0 0.0 0.0 7.908652438886641
7.988132105790298 0.0 0.0 0.0 7.877800025145122 0.0 0.0 0.0 7.87843108758148
7.898551400428585 0.0 0.0 0.0 7.903574879119258 0.0 0.0 0.0 8.008909960595373
7.967673056560932 0.0 0.0 0.0 7.913827522044693 0.0 0.0 0.0 8.003408070219608
7.946044525701106 0.0 0.0 0.0 7.903461673087874 0.0 0.0 0.0 7.865797422036051
7.927891630745747 0.0 0.0 0.0 8.006885142954498 0.0 0.0 0.0 7.932577014699517
7.943384881051921 0.0 0.0 0.0 7.871497247878401 0.0 0.0 0.0 7.943853540759903
7.919380873703797 0.0 0.0 0.0 7.911572364162325 0.0 0.0 0.0 8.017153549970544
7.939331383635934 0.0 0.0 0.0 7.940935128575428 0.0 0.0 0.0 7.959441710030683
7.909499547692211 0.0 0.0 0.0 7.950241379862373 0.0 0.0 0.0 8.009103875496299
7.985324820699982 0.0 0.0 0.0 7.886426572795613 0.0 0.0 0.0 7.958390320079761
7.888829356756713 0.0 0.0 0.0 8.00858178639228 0.0 0.0 0.0 7.910586748122649
7.955487692984176 0.0 0.0 0.0 7.90988683752799 0.0 0.0 0.0 7.952949892410114
7.881947407162076 0.0 0.0 0.0 7.889616541989244 0.0 0.0 0.0 7.976562303837649
7.9254240774231945 0.0 0.0 0.0 7.874368495516435 0.0 0.0 0.0 7.948613868273735
7.9793329471697945 0.0 0.0 0.0 7.9002258403315535 0.0 0.0 0.0 7.994509638435312
7.93626638924515 0.0 0.0 0.0 7.920124023409425 0.0 0.0 0.0 7.956495932271335
7.871962891594861 0.0 0.0 0.0 7.909787673288974 0.0 0.0 0.0 8.002054950341359
7.9303274334357985 0.0 0.0 0.0 8.001065954142046 0.0 0.0 0.0 7.978670709470024
7.92960034395152 0.0 0.0 0.0 7.885123215622296 0.0 0.0 0.0 7.951597055305642
7.943021865486991 0.0 0.0 0.0 7.9424896830220035 0.0 0.0 0.0 7.951274665205232
7.928352544094222 0.0 0.0 0.0 8.014335527434925 0.0 0.0 0.0 7.919353863956675
7.869448241500765 0.0 0.0 0.0 8.010571056815598 0.0 0.0 0.0 7.999797782172984
7.948007773144099 0.0 0.0 0.0 8.01942857099357 0.0 0.0 0.0 7.9767318732362416
7.919741243382686 0.0 0.0 0.0 7.898342102543066 0.0 0.0 0.0 7.961018934743196
7.94402836053728 0.0 0.0 0.0 7.8816200737369 0.0 0.0 0.0 7.910774657820071
7.892642607720108 0.0 0.0 0.0 7.8939370011077745 0.0 0.0 0.0 7.9772596291174755
8.01725008167995 0.0 0.0 0.0 7.904174786527936 0.0 0.0 0.0 7.878246999763784
7.988453316355767 0.0 0.0 0.0 7.87651910848699 0.0 0.0 0.0 7.895978980765633
7.961857399041127 0.0 0.0 0.0 8.020233737490896 0.0 0.0 0.0 7.967422737363057
7.918191812516627 0.0 0.0 0.0 8.007144779338438 0.0 0.0 0.0 7.9945944453156
