-105632.02065021005
-105631.75394449788
-105631.8895099796
-105631.90077195506
-105631.90219973636
-105632.00550136053
-105631.77589374433
-105631.85629222698
-105631.98089723541
-105631.92041816603
-105631.93759671267
-105631.9411318796
-105631.97286715603
-105632.04758825556
-105631.94605033724
-105631.83927245878
-105631.91529698358
-105631.94329559279
-105631.98058920255
-105632.05843444105
-105631.9325744436
-105631.87919074256
-105631.95485961459
-105632.00785460102
-105631.874284394
-105631.91694844248
-105631.9492604642
-105631.95459688868
-105631.81933494993
-105631.83187164264
-105632.01217019044
-105631.99541246785
-105631.95319890382
-105632.02865062901
-105631.98155194131
-105632.01153072291
-105631.93629206286
-105631.96366140882
-105631.90854924067
-105631.92590833484
-105631.96069768094
-105631.95851723276
-105631.9723660584
-105631.72190948804
-105631.76318806892
-105631.94555345736
-105631.893440664
-105631.88907582198
-105631.95794851484
-105631.97711512518
-105631.94173379541
-105631.88811580437
-105631.92958663366
-105631.95351292321
-105631.94898454077
-105631.97186441654
-105631.94095078784
-105631.86032400167
-105632.013911719
-105631.89665609717
-105631.9313465299
-105631.96968233568
-105631.75933031102
-105631.96349609966
-105631.8478796916
-105631.95484818581
-105631.89483239024
-105631.92455388821
-105631.93925170903
-105631.88365055234
-105631.86155504468
-105631.85099729986
-105631.91447860122
-105631.8870911597
-105631.90932435694
-105631.96127728341
-105631.96648826342
-105631.9556845277
-105632.05565262129
-105631.96562675101
-105631.94284333958
-105631.89307099736
-105631.98108907566
-105631.89627500175
-105631.98105152397
-105631.97612503897
-105632.01971400238
-105631.86480680505
-105631.95681339195
-105631.9954192707
-105632.06285819573
-105631.93997811693
-105631.79478293461
-105631.95935071744
-105631.95026184311
-105631.92784537721
-105631.90986409473
-105631.80108509111
-105631.8633014713
-105631.92687420291
