-0.15292947314360114 -0.09817988820654704 0.10320253823211903 -0.10497428542056114 -0.0232150046638826 -0.0015616880601650523 0.07502016226063209 -0.0525176102827418 0.005536356437196916 -0.052573403221341714 0.06360986354116141 0.03890284771278461 -0.07934527199854721 -0.1133285709225274 0.07297664946804205 -0.10867256020775477 0.13831095189947792 -0.023096476808147318 0.07829677612937484 -0.015297292478702689 -0.0570509793767211 0.065200605067049 0.07411616238912397 0.11249373372605788 -0.07303038552411294 -0.0044269254231020525 -0.10541780071588296 -0.03872261338117847 0.04390364336148568 -0.10498431272289016 0.10833137481825213 0.04960326484942425 -0.03245040721922154 0.08653381932718646 -0.0933079048262264 -0.04340227824503493 -0.07785686037847882 -0.16447141234492965 0.08294404509339909 0.024601343488447953 0.054553409765847986 -0.01885261393012882 0.05047641148299693 -0.0034247094108328115 -0.005713248334693386 0.056553470915012276 0.103236476793848 0.08225910321123253 -0.04023776447412425 -0.10746105639815685 -0.004878668248539985 -0.0026006708476406823 -0.06571148326519652 0.04324338406966746 0.0915209881291327 0.062420471218750564 -0.0363980790130599 0.15058745527398582 0.06241430057116348 -0.02213231312266511 0.02626433301316767 -0.08759979869785559 -0.01145272192163189 -0.03841202411929513 0.0028292419186789985 -0.12411614845633465 0.030657062764224623 -0.05412146443475196 -0.049439485578050335 0.05619865867875483 0.07937483968490201 -0.04338659451575108 -0.10321025154160288 0.09736767671789683 -0.01923930784558622 -0.1322338924674626 0.02743109962775921 -0.0018411669737968292 0.06344042784283267 -0.0726154094738814 0.0670314876282007 0.1318340859258826 0.11794292976608721 0.019813178071185232 -0.06226671924970567 -0.10225585804813356 0.01940488688917303 -0.0741866106157432 0.038112747711321456 -0.04776415475815645 0.10091708463205201 -0.08858761653242163 0.02276403316939305 -0.055181273157834 0.1312951827032771 0.08260594502769
0.4071236440666601 0.4214701425963193 -0.36236742289689206 0.3085339220162041 -0.0728241830505778 -0.02544389399440134 -0.08668834262717974 0.4820659019015053 -0.11979438115252918 -0.002572902933498795 -0.10257647461234594 -0.31538462638945036 0.4156579067899164 0.4627391765484353 0.07044411285417544 0.32742433116280384 0.017316894011892757 0.2763660790344079 -0.10956473300472098 0.45061513959139166 0.4114634090925946 -0.08650733696462522 0.013748459934344063 0.06669235912122708 0.21676713642485246 -0.049118097682889605 -0.34103909373276103 0.3530140067064501 -0.49407089678218136 -0.03318985648840735 -0.07261438103261687 0.00891735709428787 0.06800593572632804 0.010612742518839789 -0.2916512873282526 -0.4376246408689947 0.3477838686557623 0.03795899574227656 0.06784035668274122 0.4237514824313282 -0.4072699398365373 0.4050968434446185 -0.07610465357406249 0.01661961083455202 0.2736633353912642 -0.022603853442444942 -0.5304455787564736 0.02156101400022738 -0.017641367230847037 0.38088065120973114 -0.49250612339822275 0.02264370554144487 0.02973917893564556 0.041432813223489934 -0.3009080300398302 0.5235236548256597 0.04178968234227641 -0.2861552972106878 0.0878723356329519 -0.38759405867416474 0.07847829601256162 0.37148712580997306 0.0315651764007908 -0.03317005899406545 -0.02627513164644507 0.3851702797240205 -0.3824695929634058 0.449010256998117 0.3948895638943135 -0.2531832131600414 -0.002289824475441218 -0.022178592979568253 0.0594773294300266 -0.0021041908271963758 -0.39113549616851995 -0.03692618360238802 -0.42995169770476926 0.10515400553153503 -0.31145623786932164 0.05919810762671096 -0.06190342237301597 -0.3123052161331783 -0.5337844133217194 -0.36788501028101156 0.09208894481746076 0.06308792959942038 -0.037507767137470886 0.07044051330974965 -0.3808474839789505 0.430181297217072 -0.3504045941080611 -0.044826155175755056 0.3476879665078464 -0.3925228634343498 -0.5082153066033634 -0.04344984365351872
-0.4258055367468796 -0.31974830267478477 0.001030755257359515 -0.4277994272484568 -0.0002712513835156619 -0.06939561698500306 0.1391031087834701 -0.3885055147448406 0.019131321512812213 0.06510573136039756 0.10769759788899516 0.13414113679250445 -0.3986868261532166 -0.3669635269080067 0.034509089520463145 -0.3787762032722186 0.10101067278712282 -0.1362522695982363 0.06460539468521131 -0.47936161559646473 -0.15312410565291049 -0.016302079594133215 0.02233440183114218 0.06400889875179298 -0.39353125009420614 -0.05042678919198412 0.11843606735242182 -0.38230478525076744 0.31161667470658594 0.05123925779095047 -0.0037201291640645605 -0.07342556408000257 -0.07153066105013488 0.04467060343449726 0.41826140585103444 0.12311470377501377 -0.4369708093350797 -0.009966881404724771 0.04976215902479172 -0.3860241430838836 0.426038221582976 -0.050597510441893506 0.03527322137999732 -0.15342595316404545 -0.16628866805932652 -0.06134317899417177 0.3775335891143692 0.059472701444336286 0.06260661908762767 -0.4566353776435426 0.16469355565806473 -0.05246156023382578 -0.02015950566701044 -0.10757495626820184 0.3946172840695333 -0.3993810240067638 -0.08073546747785451 0.42690262646580024 -0.08394163311997802 0.04841130142385211 -0.0629028101718078 -0.30502488042168113 0.03703057039073623 -0.06944163973159008 -0.004742142670675704 -0.1614076858179414 0.3230004910634953 -0.39073080453093356 0.0022962522333444327 0.3995959682310473 0.044857522634322744 0.08029683727853913 -0.11396851849937145 -0.019929134823759225 0.2035041007673592 0.005013394054191366 0.428953595457558 -0.09775642751588326 0.32846665638438916 0.1109541571530799 0.06569811352875782 0.31597829410939127 0.4467962800659338 0.13422341209366562 0.08485746006602805 0.04686246887949348 0.024115404990964918 0.0446304942251812 0.4740643717532675 -0.08676856104581186 0.4734447358913975 -0.06035099028423155 -0.1627911964290293 0.4021665571717009 0.26600967550074833 -0.07089251324550372
-0.3749755985792058 0.23283293163846353 -0.08231798147362597 -0.37161079587203094 0.017556006605892346 0.01974427250646277 -0.11321749926595984 0.40623455659348745 -0.002087478656648018 0.08733008997623669 -0.03817034042213426 -0.08339887324263057 -0.23157026287595603 0.3447831341562256 -0.11777349406775846 -0.34291625615081583 0.12024663819859935 0.15501643757961692 0.11323549698808885 0.3419214963377144 0.08757485899719111 0.010223477500221102 -0.15891680107528758 0.056032308304219625 -0.43028002757846545 0.01961674578966299 -0.1558690153878993 -0.3601089658800185 -0.27699008577165196 -0.08332688235411456 0.07771982057998228 -0.011969256546734225 -0.11481903942512484 -0.13679014437957732 -0.33785452535719235 -0.09925126689385487 -0.37923437385555975 0.03155694887067468 0.052095949364290926 -0.3656478934203767 -0.3969114794203487 0.25646908300016474 -0.13499731414521265 -0.06491084174077208 0.15721061701745828 -0.11134522194391147 -0.23205928669723258 -0.03316903055280094 -0.03593348067181553 0.3873189506359071 -0.3000048014992704 -0.07112674074349686 0.060627126763753654 0.048129251407059044 0.5051225266106527 0.38358108086002973 -0.0722395141917014 0.39068966688035295 -0.017177025999918806 -0.08495207666236337 0.022463214099522604 0.3964306831291882 0.12221147523445405 0.07532638064714124 -0.038849368767029865 0.17582540390516815 0.22734054106532461 0.26443616036604134 0.09979454099183459 0.23318105900650166 0.062004466727254494 0.02757482429447509 -0.022982319827786223 -0.12863254826944942 -0.19622865015186852 -0.03319859823915573 -0.3279598919512997 0.0860216555774583 0.46571085758224956 -0.11286937189792175 -0.0089410112433717 0.4452315066819751 -0.27775987405814095 -0.22033197095797538 0.16131949697950929 -0.0825018153496579 -0.04091190772301341 0.06748785843932893 -0.17696620237783073 0.10958247361653385 0.3681122958004692 -0.02649418963578663 0.1500557511402319 0.2654419759227364 -0.36215427844482145 0.09228460576803461
0.061687963928100206 0.5398977253083089 -0.17214924060516157 0.014263709007865758 -0.08661275219423793 -0.07042097292572388 0.0057811254581513335 0.5401913452893278 0.016296937387810642 -0.026377204441948122 -0.020147935702784656 -0.12723181126718086 0.16146553563907032 0.5503130071043619 -0.03240361314168613 -0.004290142734921644 0.052785776342463925 0.23797436663008692 -0.004558308794643763 0.5062116459097734 0.26833035321412496 0.007662658751580351 -0.013325513464312535 0.0052975009535134576 0.10950508341137916 -0.0277242053881458 -0.2708569762907206 0.1377666493602337 -0.5071058755892686 0.0432014750881385 0.02079045438279 0.013323199471467376 0.07305121145971935 0.011540396539431737 -0.524967843471354 -0.17782777904717761 0.09014107706247056 0.0862337715882644 0.00725822422431008 0.02535467671470472 -0.6043984760948559 0.13056113275072997 0.057155623275385446 0.07465480850141336 0.13145227710643168 -0.09135772307839105 -0.6250660317465364 -0.053644524798333426 -0.05057874138881612 0.5787164979477195 -0.1540738711606895 0.057359511756075406 0.0424262874850108 -0.11036640297040992 -0.04770681915765977 0.6015928883252607 -0.041836990640444084 -0.0322891990510089 0.0783613108187231 -0.10531572792037991 -0.016782875885293678 0.5342844928865896 -0.026584692467063895 -0.01245313816168823 0.0957432537405964 0.19766332571586603 0.01694254139160953 0.5713263761312354 0.10953567953899845 -0.08301552176128284 0.01113519068121308 0.08772475431149408 0.07382768461442768 -0.009937570828686113 -0.23015564191661655 -0.03410696898603804 -0.6270334398855524 -0.08035057333461 -0.19883626297804466 0.02200118686143953 -0.052703243930986646 -0.08218402699892298 -0.580281271331678 -0.10743380270464722 0.059923930049141955 0.0454866715778894 0.053777965052404154 0.02129978991904074 -0.6499828495928742 0.1517511365647838 -0.136615566474926 -0.050194875686836136 0.19322277344600916 -0.11131642558850506 -0.6179065378836197 0.10625572323614603
-0.21380085470767693 -0.031361030809784696 0.25746744235769203 -0.1368726767910546 -0.0574376732921785 -0.05126342616066655 -0.0906450132820826 -0.03318317162018801 -0.049035565271412326 0.044886576100045275 -0.09421781823500547 0.3486894111891672 -0.0841357514086551 -0.17661576101694745 0.05459017654105437 -0.25064527722953606 0.00864893392424962 -0.31153259963321184 -0.02282085454925747 -0.22654607018848724 -0.27584620197519594 0.018356391020000643 0.02274500700599954 -0.09970172416771217 -0.260468433967545 -0.04592787288036606 0.2360712360701031 -0.08860664269581514 0.1546369427530111 0.05192728499691057 -0.0522414738032197 -0.05135727142605348 0.08221076647180035 -0.0030482999080205567 0.07885521973600614 0.16901892250629602 -0.23370530694108782 0.07833688533869089 -0.03366885300735492 -0.09872830451084932 0.21815296102878562 -0.2526103713757069 0.10708413267471235 0.035541387439719435 -0.27081686708140457 -0.078577026373955 0.1290665504830745 0.09538304218770025 0.03880308891012672 -0.09467110372234018 0.284366066520749 0.06101716311332071 -0.05443513902042883 -0.028096758236216126 0.11484886422179576 -0.04584585468952104 -0.0584440030695058 0.11167766558266572 -0.03484024760763677 0.3491036159084504 0.034882413699481855 -0.18094318474770774 -0.013004639789784056 -0.031289297031584826 0.07235187139984958 -0.19771500488940785 0.23422775510346114 -0.19233060064904298 -0.22348337210276348 0.1982266544185038 -0.004188584160050851 0.014413090101536468 0.004927776318920545 0.040020763367311724 0.2654175504427042 0.12589458051299607 0.21659975760905278 -0.05625008074198054 0.23246963476177382 -0.061329295037100835 -0.046866068423919285 0.06401018430337363 0.11791927561700336 0.18924656240708052 -0.07001242463339555 -0.07507364120638683 0.04125437866409669 0.046286541771365444 0.18613604180255686 -0.2320258623561359 0.14634950593323828 0.0077529044725414865 -0.2734298792242194 0.13164922360858616 0.09354033255200665 0.034631731141256485
0.1772495379462044 -0.24779109561019258 0.2951071070873369 0.08661480907676695 -0.08404859101148751 0.06384306259789005 -0.008188963568695574 -0.08355776741799803 -0.056904169386211685 0.018036031566104425 -0.05921816223136898 0.40287206787915775 0.026352521851599777 -0.24972867895253767 0.04830974284898132 0.025797420679078153 -0.0652553695643844 -0.4589331725387838 -0.08641940523650923 -0.22612672326288152 -0.3521526871474193 -0.09583992721946075 -0.05670439467057976 0.020658556790616033 0.22757502567363386 0.13474611736635503 0.2992764079736781 -0.004043316831438198 0.15252889527107277 0.022113029848955464 -0.03912293414339069 0.04096590088940042 -0.037019000426510434 -0.052599628473586825 0.09409646216579279 0.2724549169054598 0.10354320940098942 -0.02702460821795991 -0.030476314211986225 0.13044106223309793 0.2924280175932771 -0.39037753495657285 0.029554830838981357 0.08446279573077067 -0.2382625872944671 -0.03299702375131092 0.24004487600587046 0.12569223469420288 0.0342244684005088 -0.13163199721740554 0.41512568843553027 -0.06421201590153457 0.02961268066011029 -0.04101758006294226 -0.06448609549852766 -0.23358832174724933 0.06969257940013159 -0.18587173239757665 -0.015839538135417882 0.35216220022911604 0.08817726846788039 -0.2962437917949414 0.04611710607303671 -0.008474870240230565 0.08680609915196663 -0.2816291272055601 0.02822531339428042 -0.2536604099067761 -0.44069222405072495 -0.019641428380011334 0.0009255971380629221 0.0681010665432956 -0.013814794395905241 -0.04116747537724523 0.26766186639219064 0.03004668287373535 0.13244138049257836 -0.026480562789031815 -0.14460192711451225 0.06621156283006661 0.009121759795610097 -0.05604747781287121 0.23275425588172818 0.3996407054260536 0.1317312417994312 0.04054166886778825 -0.043087318107777405 -0.08451756022810605 0.1571738502422519 -0.40662433583273844 -0.15461585970708855 0.0300166009667483 -0.4053110163379536 -0.022074720411852305 0.25582964964395294 0.031017274317120775
-0.4275055501571218 -0.2861748375947136 -0.22951980810483052 -0.5134066209963158 -0.14243602981144501 -0.10891167280175437 -0.016287681416430014 -0.16665582159075812 -0.04410804606280791 -0.05458272034188664 0.00412867745639289 -0.3377761067107731 -0.46520974957611494 -0.2373321050603977 -0.01319335876182244 -0.3871191759202752 0.08767821734427479 0.2689669583568594 0.11934572365088476 -0.3100804405677176 0.315375884638702 -0.0130419207856227 -0.10333700692745428 0.11048878748088714 -0.4565510454598524 -0.026010308020832627 -0.40019040728193656 -0.5213425880139408 0.3075856991703219 -0.06686847968777516 0.10453719788314256 0.13020554918352414 -0.05716462213644993 0.01892023394327064 0.23182223098576205 -0.3302471453235796 -0.4341125139506781 0.09476829142183679 0.12372996876150948 -0.4151606554385237 0.2624990912443285 0.2703381276727731 0.058913229396440475 -0.03829735291830178 0.3728256421157386 0.009920601547821624 0.20533858287293666 0.12518109938573924 0.06488590204010761 -0.2563112172660618 -0.4027841361510418 0.03476182896121755 -0.045362487295199296 -0.09842928521319178 0.5061231999610252 -0.25263813928984874 -0.12437531565499226 0.37790511352117495 -0.07380403046534387 -0.2718291103960028 -0.09599573607103468 -0.3501672812862744 0.10378952108384061 -0.020716149501428843 0.007899200242418655 0.4387633824591282 0.32330002458178514 -0.29318649302585637 0.4129657046697339 0.5101166373911344 -0.04093659031336175 -0.00423255002410884 -0.023229917062218056 0.041789939452592545 -0.38514971089873024 0.07660344758735195 0.25917748307026334 -0.019464022261882607 0.393466972515174 0.12064233097512127 -0.027884899335726174 0.47035709810500936 0.22608352872977194 -0.28819212513505854 -0.11182678956602031 0.013987315418027522 0.02672198937587656 -0.12141314770287477 0.3195719249979206 0.30063575021504996 0.4894647654687377 0.040795436749807165 0.4234339511909095 0.5188799854060612 0.2687566421182662 -0.08289622257459917
-0.09598288055522824 -0.11922693868483338 -0.042459197605475264 -0.1923851080360622 0.11985634473871615 0.07607508588770769 0.06375641642135471 -0.15877127663635884 0.09408746330472828 -0.0058433461546544534 0.06280587958262732 0.009476057811235292 -0.17471211623633137 -0.21898702689430674 -0.012018107506798657 -0.13994745906163641 -0.1210382808619593 -0.05735874042512702 -0.029897816000696895 -0.08903370293090472 0.011810105261050627 0.07242926160500429 0.10186916413267616 0.02051328946200338 -0.03950268608031261 0.03152223897799733 0.07405934100925955 -0.11940665879580727 0.08043516262861632 0.12027980542937994 -0.012552896964346123 -0.07054747120125915 0.06241070102673768 0.08061154030548053 0.09546583170949365 0.013934093582588906 -0.15349614428034855 -0.07766017098664045 -0.1691392501342442 -0.19992769627001053 0.15235226048389244 -0.07699194127502225 0.11234460974270329 0.036020641068983124 -0.029646105001207013 0.06985713000245389 0.17699217051975968 -0.13335515055609937 0.09858663672666247 -0.1690034958873283 0.11246030938496115 0.012937533997274493 0.024433450452015983 -0.08070615690181585 0.12332142046918115 -0.16742818098040843 -0.06538701004624223 0.11433104404511277 -0.03837474312345649 0.22678312589995783 0.0026384660641115853 -0.13799239221779458 -0.04211184156838554 -0.14942583086571684 -0.07330446512110601 -0.16450252269318122 0.10626729320037183 -0.20047816945684183 -0.11037900137590022 0.11184992949447188 0.08125534453706651 -0.05324703224959862 -0.006892613354775226 0.004707946998630602 0.12051326159642471 -0.0855799400543494 0.15882475558211356 0.06487227519335279 0.14927285022762035 -0.08080051638783504 0.03696475014980731 0.0752451337872446 0.2010276142024086 -0.004882010682649656 -0.05365300943876566 0.06330133116180711 0.027593593347552476 0.06276782725584029 0.06275548596066612 -0.04278392793474567 0.09492512871467522 0.15645522690867247 -0.054662424539886505 0.10806372297916228 0.11256675305583838 0.0677969050393155
0.35781245653635796 0.03153329472159086 0.22322934711042847 0.5337641016067453 0.009120217133713325 0.08206447070192319 0.10784389365887233 -0.029488496377420185 0.05810358901095155 -0.029755891106193918 -0.025698947428000902 0.21997972982487923 0.48505198111302267 -0.13374441557471806 -0.02952783425578786 0.5531090817922603 0.017313551577783085 -0.13380406516805987 -0.04149554814062531 0.09209845789915751 -0.22543972449818594 -0.08993050371356125 -0.011873097288502133 -0.1197864107327292 0.4292937524057961 -0.09068306560886963 0.23088120722873137 0.3847357632897632 0.0034838447835423866 0.08408921444143583 0.04888284174363194 -0.046778650916435564 0.07507312698575458 -0.01712277572321567 0.012148976657708109 0.21985888797629877 0.5468435604985227 -0.0360869755305443 0.07799184329444632 0.3367967735166393 0.0005371034503926234 -0.3415384019666828 -0.10060135316384611 -0.059930357807045184 -0.2917289346437234 -0.06274263044485968 0.12652912877320144 -0.13083881189214885 -0.0764743782086554 0.05413123462676484 0.25711442989364747 -0.15076254739926936 -0.01374923126529245 0.040161916930866313 -0.29976337491242566 -0.09786904183434757 0.057880674366868064 -0.4186288164927822 0.08163149692956263 0.11855408098752487 -0.005482363270809913 -0.10882554084585129 -0.05031751730762948 0.044143013065801394 0.02344640394839833 -0.16341777426943468 -0.44185616245183906 -0.15731294692327746 -0.28879402038511554 -0.5297341545117458 0.0662537289219117 -0.007005484783555678 0.002491141852969903 -0.03350918750103907 0.2945707749678927 -0.0024451191063828855 0.019859715038404505 0.09244170017118918 -0.43558369917956596 0.0922637798324282 -0.11868803546222784 -0.4504775855722629 0.09994417919582141 0.2456730208259253 0.047565665594105175 -0.039678549536544566 0.011127734482045352 0.10216381255495954 0.014229256225504527 -0.27946631522628645 -0.361297586871481 -0.03529070488149406 -0.2789713778677389 -0.46634283473929367 0.17599535382412915 0.07052895925849788
0.4803597178436759 0.0011999338453721272 -0.20302638979999227 0.5536258735276788 -0.044834382705871166 0.0403542354473305 -0.05344860673744343 0.009675575416551077 0.032609301394589 0.010778835783058856 0.09703189064503288 -0.23115348705351157 0.48879087933016463 0.11515431127735651 0.010140687978427695 0.49459823004056114 0.01855410885310353 0.17194175258004582 0.054965557602602105 0.03400618174211563 0.08759002850584269 -0.036527662612388705 0.006485864834659797 0.0846430300623768 0.5478748299765144 -0.014119984341149876 -0.14401494426279068 0.49728374729252417 -0.12125039687276538 -0.09867662533730748 -0.05347534621032081 0.0036777059619033437 -0.01569555635838587 -0.07008981483855027 0.0321812127182349 -0.049180832600024975 0.5418345373197057 0.053530110707656196 0.05673910456325713 0.4327161478237838 -0.07226908187805617 0.14045679459788712 -0.08953069717198128 -0.11697439520523081 0.12578865106275108 0.025628242091065543 0.020523573874648524 -0.014718280046781102 -0.0030439290326463708 0.03842205142162415 -0.125566507749616 0.0654011511136293 -0.002485742536331203 -0.01805994282550438 -0.5854430180382756 0.12568169317124162 0.03226605912255733 -0.456166151316608 -0.0390609705572037 -0.07391381657033078 0.034260206734450675 0.025820560607529727 0.005700392818886956 -0.06185200030979025 -0.0702538512202403 0.18647542741984657 -0.4976185049241237 0.06948483426469969 0.09865631362233332 -0.5537009497399883 -0.11486789038518927 -0.01945656606271488 0.06233639614537651 0.03365008395427753 -0.177908511686442 0.02032071383522307 -0.11893331870381453 -0.01786839563998858 -0.5418000845373443 -0.006519546286072642 -0.004504315628256759 -0.5015520356505749 -0.02947795485445891 -0.20319582549832102 -0.004853471437559383 0.054941389232886016 -0.07649520414426181 0.0751587447210254 -0.0492214560299733 0.17266448967868328 -0.44853743112675654 0.06483756530067543 0.1100576134807395 -0.4282941074966882 -0.00458993336352758 0.11735157603899143
-0.2910931008319374 0.3143633842137876 -0.04706815713239636 -0.26327942105377883 -0.07416912711424646 -0.11088088071298323 0.07242463361931398 0.34369375774678873 0.05124902798296336 0.041499404795367234 -0.1100010492111912 0.12930154931201604 -0.3141232431785235 0.15917211161920328 0.0077986701088123755 -0.27875720497440376 -0.07397552304620163 0.014566584960265236 -0.0897618393461809 0.13836545928649716 0.05414229037035837 0.021119298477118464 0.0829530439544636 -0.06938430413109341 -0.38156430754031706 -0.07833817089027154 0.11710166481171447 -0.4157455814077162 -0.22199701736522412 0.04357299949494431 0.04478270353232932 -0.15410883816368298 -0.040273245697749996 0.007686827121296438 -0.10304467249801608 -0.09246304032742786 -0.33555930156511243 0.042634032620442706 0.09308807550593645 -0.29978857172340634 -0.10849618253089056 -0.08545986953671734 0.05316552827938585 -0.02375416499680425 -0.1908136497838843 0.027441126930088225 -0.1195570683307425 0.12400070592439288 -0.1394466081658179 0.22097757496177428 0.04447185716012986 -0.12052251756780534 0.06324502400257495 -0.07179754155827635 0.3231789256228886 0.20867844587944706 0.08458955111662206 0.34736400750952434 0.09646110574322743 0.04773998638844037 -0.12171885186875164 0.12296943644640113 -0.07526621683316716 -0.025128676746827693 0.18071152835287585 -0.00888624674603631 0.480461790639179 0.19292966768562256 -0.04715480330893169 0.2802798122665173 0.077949162981969 0.023959081918758736 0.08482429283524746 -0.09001869255199335 0.06572742410479648 0.0007255653121148795 -0.1096423803201918 -0.018717888124477437 0.33402975229446347 0.029167365592575573 0.028966048215046888 0.3649200141154167 -0.31192520708594024 -0.004583248495308235 0.07049244959360762 -0.13382540532429857 0.11137684651279528 -0.0785032357132261 -0.2853371721847666 0.012758328106932866 0.18851636910927533 0.011906007408966593 -0.10550187578925702 0.4120794454100387 -0.28798669399247173 -0.08615946670690323
-0.3659715953083826 0.08655233126994771 0.006965375574239618 -0.3904492687347727 0.05613206710687752 0.01111539318687118 -0.19516601321530905 0.011287142878045076 0.03208299657747378 -0.17659184975754746 -0.017158256946841418 -0.08972790078445193 -0.420657673997353 0.05771586665422963 -0.0875730592249782 -0.4773749241837391 0.095598500632616 0.16186585640128254 0.11506895065240182 -0.04828917402369103 0.08397531457139086 0.04236072435439801 0.07113676804582587 0.006159591843492618 -0.3282555688148476 -0.0777280481100984 0.05014216807202977 -0.3416073075314052 -0.09325442588047166 -0.07056701158528492 -0.15609604379704084 -0.005679566883280541 -0.07988957453779144 -0.06394616383465761 0.041504032781057555 -0.11168177934772378 -0.47029256341566106 -0.04003053355932461 -0.06179286493708067 -0.39034051107105033 -0.007823866919792978 0.10323493413195124 -0.002056625418712587 -0.0979240634419991 0.1235062827864776 -0.003374315788871608 0.005145034536049204 -0.06350136298775515 0.03873855422077844 -0.04417052386962715 -0.10386819684057597 0.14655622262740567 0.11225667801458733 0.04303229650012589 0.49680500788389276 0.13367448156873107 -0.10604592121818511 0.43609997669435213 0.04238977782012054 0.024306952176480722 -0.030598441612147302 0.007340499525471229 0.07498031016163216 -0.06964578532259619 0.10960561354498545 0.04419649201155614 0.45708429225550307 0.07682019158384834 0.017254159094757384 0.3609003514330623 0.038988979668687695 -0.05465651100261555 0.0974196130017548 0.04109085650303891 -0.1363923947205264 0.0556435575062332 -0.09150967527522305 0.0030189893319818974 0.40461604715345806 -0.06484707838237219 -0.02947769774414278 0.39559610304303483 -0.10544633996097325 0.005623516834364508 0.12381944315152224 -0.12255214640332443 0.08737225606808179 -0.04496113809172257 -0.033190370709039616 0.08641220614765764 0.3523018111307739 -0.03133943354322989 -0.015080548482206284 0.4043748776769294 -0.10629531822482984 0.045009989051787
0.06285730164585303 -0.06478640034776585 -0.005678795552332155 -0.0011719088209141107 -0.11916188977485284 -0.07086705932420699 -0.03390873693230289 -0.155810394235822 0.04500227574230314 0.040025648463318166 0.05568649492902668 -0.09478448937175288 0.06450332188970827 -0.21918962982341608 -0.11453647518769952 0.02337698416304361 0.10406077246735626 0.08591598323752946 -0.03568819743022886 -0.08854622177152494 0.11770073184829406 -0.0695452551889899 -0.06223509468082184 0.08437897776771273 0.0891072364813175 -0.0023744137694475236 -0.1816486954551646 0.0369817194306718 0.2125315010769501 -0.057477011170546176 0.11839518681215738 0.11121949499932458 -0.08204081655283936 -0.05918550922122065 0.037821955943780024 -0.015428932960560523 0.07921003197226358 -0.10509666993103836 0.12134372791752004 0.11103231868918295 0.09452686483499205 0.11220319906883257 -0.06300282608478182 -0.0467331423904808 0.10918678084001196 0.004163130238754121 0.22460283041918738 -0.06106292874959161 0.07844949965715522 -0.018157387635317115 -0.09528482604693912 0.0029050894619369323 0.07511966395297386 -0.1127716699777929 -0.04767776569193724 -0.22161777964893445 0.07706418927385437 -0.0016555333255519875 -0.11396054807957148 -0.12822142887395982 0.021287705734182694 -0.2319667269834263 -0.030414864846431494 0.0388892208660298 -0.09383832340839968 0.07908199103483154 -0.16954162777898543 -0.15594049205578306 0.08467568307252514 -0.05202447269640718 0.0970131215919555 0.05125468440991818 -0.14812716665895134 -0.031228361886662347 0.020822078951673817 -0.05824859922924807 0.13813945931862015 0.08925610335435596 -0.1248370857827592 -0.03347293494646494 0.09952508938053183 0.045405938938625025 0.19579156261444988 -0.10171901170805707 0.1171955100771014 0.058228030403957784 -0.08154433653239504 0.13273294359106816 0.14019659895796502 -0.03891107524290073 -0.015069492738612758 -0.024387941926061224 0.08459572176420914 -0.18683486764179436 0.24356548756461924 0.010384685668433728
0.09127673332881053 0.33026025794970215 -0.033155403706046124 0.16693350073217703 -0.09056222376028919 0.03909902288399073 -0.07107686134216791 0.3600457167422509 0.017946300065775543 -0.09629655514090514 -0.038647280058552794 -0.0498277221554045 0.20439370246116415 0.36147422165866133 -0.10664395981350022 0.035096586592816975 -0.04597106741347567 0.14654028178780568 0.0008098974958050568 0.28267556619220346 0.013438899113725243 0.013086915090945204 -0.14036140667060343 0.027623675254539518 0.05307785366158601 0.05141692101939532 0.024218506227732483 0.08570618121956852 -0.3654632882133964 -0.06120228254093331 -0.07986077818238504 0.07313734341562243 -0.07878579995065141 -0.07962783623597254 -0.24242237509911155 -0.05474521406167991 -0.035097615034081486 -0.02139774894948573 -0.0952701707589198 0.1446597769356412 -0.2007075118588285 0.17342502199379164 0.0580123148487259 -0.054833145789795895 0.06905391737486818 -0.03620807448944087 -0.3406739970838584 -0.05928681068577532 0.016818099998603293 0.3975172313251476 -0.19660711653720978 0.042110041796172636 -0.06098836675791432 -0.014565556519000721 -0.029468184662446023 0.2964682491009217 0.04212084042945004 -0.10458424907099408 -0.11304806356763111 -0.05381884559266859 0.018893237360077142 0.371354971107483 0.03819450879185035 0.0075937531868578885 -0.020155134791636255 0.10995476935428806 -0.17130977542300174 0.3020259456943573 0.12193739563746098 -0.15632024399270497 0.044290594387259206 0.000537360560708752 0.002450775533337715 0.059409452306568654 -0.03846138929999183 0.10727567986022815 -0.3895848638519484 0.1065809677860487 -0.022011471274084673 0.0794691991709212 -0.04088182581602637 -0.03596073436532517 -0.39435323177486925 0.020000354381326847 0.09801559471454087 0.10485241513071619 0.03762423811067714 -0.03421264132596689 -0.2367204396183278 -0.016690059061171256 -0.04305003711193876 0.001632650507416543 -0.05367563514658498 -0.15112481583469456 -0.36014136177985073 -0.03467826810847576