0.007691936182947672 0.008006150552321907 -0.00818536327053284 0.0010200124754560598 1.9687551318646581 2.00056973150547 1.9714946390549313 0.004815848374831243 2.00283318024164 1.9827779349521586 1.9626824260123301 -0.004946113125953727 0.005008482309824492 0.00938932536424065 3.9994839164466733 0.00900642594427456 1.9590839609479889 6.010153508322506 1.9696022474886246 -0.007741673633376257 6.010669040943616 1.9713833219039718 1.9665098412453108 3.9980360040008636 0.0048987441255455505 3.9285875230190963 0.00938064104749915 -0.0007200088062042776 5.905125381650818 2.006862703209696 1.9676869609054537 3.9328996810229206 2.0035887157981507 1.9676230127549028 5.911330720704289 0.00988038400180541 0.004889270325463916 3.943167701344733 4.001088936077171 -0.006219549753593529 5.89632974775836 6.015258307599828 1.967815646689896 3.9373886832949356 6.013564076351894 1.971877538474897 5.896220799057422 3.999898395200245 3.949009088578401 0.005242958861844964 0.004158998235837866 3.947520912482245 1.9756765323076328 2.007449289331417 5.913498641956303 -0.005467172130443665 2.009767212418057 5.9124549449806425 1.958419215975594 0.0041645246192188205 3.940977674559195 0.004454265005048832 4.0147896299618955 3.946748008292251 1.9697593546733114 6.019257040717617 5.9199266153116925 -0.0003600044031021388 6.0149133033801885 5.916181306346086 1.9642424450924392 4.015596481935514 3.9489285612777074 3.9257272248777824 0.002520820305055108 3.9562383875240292 5.900441376993789 2.003880824634001 5.919364503173516 3.9359739291494114 1.9975783791296933 5.9116694090572075 5.892803125677971 -0.0014755443627146871 3.950747530893381 3.9438537623673113 4.0080727057040155 3.9494519887322173 5.898907410863905 6.017467281985528 5.918732127018067 3.9367247278058812 6.009604817401112 5.928843829638532 5.896074744639495 4.001866577167204
-0.0025694524435748837 0.0017332590672992669 0.0004301109607854465 -0.001708429570494148 2.032166161257406 1.9670415949436186 2.0205475586556303 -0.0042009906691241475 1.9731408406910698 2.013569669101882 2.0300908958954045 -0.004697580605226525 -0.00838115659899239 0.009126842454655799 3.9240016132328495 -0.0009627437148307388 2.019979684035152 5.908151532426705 2.025070531831711 -0.006301886479441143 5.8967932390656275 2.0217561944839826 2.020762213660268 3.9268281711110835 0.0040359946580965835 4.053843061541914 0.0008874542729055396 -0.006888182984645885 6.069184435383568 1.9714764634536168 2.0243488745213427 4.045681365656619 1.9612370993517898 2.0097571399150316 6.057903033367436 0.00759782602236638 -4.004757549212724e-06 4.0355669499903275 3.927379225749855 -0.008325890944813253 6.066667044788132 5.8913123278837745 2.0200573763316068 4.043705418281837 5.902587322287828 2.0137010251494964 6.072434696610509 3.9284669179002214 4.025323581130951 -0.0003476129552716644 0.00926300421132903 4.030051597893551 2.0202007466518683 1.9573060293414826 6.040083464176459 -0.004634305435948964 1.9629935860128744 6.050012059092467 2.014173586540303 0.0031221089853662393 4.02441209831275 0.007243805455015974 3.9265846818520918 4.039034269076436 2.025201887879325 5.9009645945288876 6.048136230656416 9.691513269094791e-05 5.896075586512809 6.039553234276943 2.0223817376131694 3.9380286770247217 4.033522921737209 4.044166766351506 0.002115312937494161 4.039941747137087 6.057890218143278 1.9590480988753902 6.045295255651005 4.038139606239942 1.9730263046251622 6.047160671717427 6.076415425614427 -0.007224582618779754 4.020417753133166 4.035421176815536 3.936526892943767 4.022521051798012 6.064379527276023 5.890693993318176 6.054307562039753 4.051500278375625 5.902685038372029 6.046390156364959 6.069868447972973 3.9358781222207946
-0.00354245311546095 -0.006741313107129734 0.009551728658147704 0.008229415727189975 1.9602203959763604 2.0029156459603064 1.9774457043991998 -0.0008345548601198982 1.9885351924925012 1.9784564608612643 1.9520734746355355 -0.0014544641324162526 0.009124840231618043 0.0002514877409574357 3.9859797787124243 -0.004304925502058016 1.9490123722599324 5.991795542857465 1.977637924328594 0.009735939423817163 5.994198291974893 1.991055676316683 1.9528631781787966 3.9901397383510644 0.0026149919561338462 3.915680145034724 -0.0060893671799343435 -0.0008946235880555915 5.87065854335323 1.9900521281019705 1.991303159475778 3.918866991280806 1.9939902339054347 1.9853307260862252 5.8673787908079404 -0.005374148859313356 0.009305847331797599 3.9146541711615823 3.9863778341495446 0.001717164702588351 5.864233592213227 5.975932593184208 1.9779671009576816 3.9208444538044485 5.994990398267272 1.994984171123677 5.872761749747352 3.9832975097810026 3.9665807832546855 0.006082959848954536 -0.009139256726322608 3.9730145444747844 1.9578376697682445 2.0019465371496104 5.948827981306879 0.0016883317131792183 1.9997488226235365 5.955772727172618 1.9599376724968764 0.0038243756785724704 3.973121066352324 -0.007856989613988678 3.990561020362987 3.976196585222631 1.9567476225853047 5.992291310092029 5.963696993761893 0.0034815834711527808 5.981311547541756 5.957237603217876 1.9534102040611978 3.9855857278571665 3.9804446456622435 3.91265428297951 -0.009958594175365465 3.978210088983036 5.8585182529792394 1.9980757083214342 5.968309471150983 3.902404155244563 1.9913464089598918 5.959593098269327 5.863436680422614 -0.009546923159912846 3.9632986279602793 3.903551868406321 3.993006218048156 3.964137988318634 5.863764255218957 5.987021280361137 5.951844232365622 3.913526480909136 5.986740158714398 5.9505115075218225 5.870689779091756 3.9971517611920913
-0.0008215173408940994 0.005353343212718209 -0.0017009215214457947 -0.004139305520721235 1.972484545687702 1.9790503406516047 1.9742544556344932 -0.006319181167553164 1.9874653426029254 1.9603917469921084 1.9866779229895006 -0.0077441489876175435 -0.007851199992463783 -0.0005971067159201321 3.9809858072281163 -0.00015383625881607653 1.9740014980748934 5.958581047184219 1.9624304739066243 0.0019649806667331837 5.966096027724425 1.9635683864396196 1.9893177214719684 3.9652271063443436 0.007833754643525877 3.9625762062761885 -0.0036167380229903353 0.0010134161792110608 5.938936791309731 1.9932825735033106 1.9568344817495882 3.9600997596974117 1.9936402031565374 1.9748785233442263 5.940797892853243 -0.005695113457819905 -0.0014114873231578155 3.9531192412110308 3.969570205259476 0.0004036219367906338 5.944274275114323 5.954379889971808 1.9759680646824394 3.9655672906486332 5.96252052416256 1.973825458644702 5.9322377773175745 3.9809540884118655 3.9381971241058715 -0.0002719888493500735 0.00708677652082101 3.9375857439226385 1.978434202645934 1.9799606706780009 5.89124041434309 -0.005032983168585761 1.9908806661427236 5.894173611875877 1.9893573699922817 -0.009200042653526391 3.931104796792207 -0.004518345374917547 3.969497251982099 3.9256761213908926 1.981364228297096 5.955811994525528 5.905133255860914 0.004669802722514818 5.97037886088868 5.907348022205621 1.975244082701516 3.9694203338526908 3.933457539987605 3.968815297432709 0.0047142090652658505 3.9334797431589803 5.933887948733019 1.9830381888247286 5.889864610688215 3.967746373325058 1.9889489902330535 5.902932762983518 5.934434305342938 0.00394899262321681 3.923850703515663 3.9642049674906636 3.9756284991633666 3.9371472312879723 5.933014888315717 5.967828668062121 5.901629119635613 3.9613098325373772 5.955459122694739 5.908822947161281 5.940235676835198 3.9713765918449555
0.0014621183005741802 0.0015035742174934045 -0.0019308890534300242 0.00764542775491079 2.0148396768789683 1.9685198647842785 1.9917662701967336 -0.0025463499738462006 1.9639381887355327 2.0029386398064646 2.009566803138511 -0.006884073896105805 -0.009749315538561423 -0.004250825942563537 3.932701208417126 0.0034209103750075286 2.001325047963301 5.89303990744323 1.99750472577336 0.0036018813969433726 5.892706665649533 1.9949392422993975 2.011748819380971 3.9315356593683584 -0.008079917653391121 4.019835167947963 0.004960359905219493 -0.0015641636345291939 6.031072166200816 1.9616652883675192 1.9932674527267122 4.0256573325876 1.9594792859792016 1.996723441185267 6.035630722603588 -0.0017658626149246505 0.004223720150731737 4.017150100098272 3.935941944999369 0.007951563756775831 6.041615521994215 5.905605833644785 1.9903543773339654 4.013131267844622 5.908359463203226 2.002842972305882 6.040878085010556 3.939951210502961 3.9953251542986434 -0.007748270318037327 0.0007653400046626025 3.9850345201526176 2.004025263167251 1.9765702849583233 5.989087686340872 -0.006601057540214946 1.9650064758253742 5.981789850504746 2.0022147557187213 -0.006660052498907689 3.996430113930375 -0.00011559822987091392 3.9345794803452354 3.996745816682299 2.003608312310544 5.893714363322339 5.981353766147922 -0.006892843416992564 5.9061925943150255 5.989821934407845 2.008917858592891 3.925014324745296 3.989540459430069 4.021133854268375 0.00833184207159256 3.995133022068307 6.039643177023866 1.9757363832449097 5.999534577404516 4.016470860844134 1.9698520347298945 5.9866704874928125 6.032991096816674 -0.008137318153740816 3.9869893260811935 4.019794509260215 3.9295011305226306 3.988026521233345 6.039730872232734 5.902215217978294 5.994632415228818 4.0271648929509505 5.895756067230611 5.993788149536175 6.035604414040928 3.927593361115175
0.006269242012658945 -0.008256353658190337 0.005309016337302321 -0.00010157759210384113 2.00210783114066 1.9849555024240007 1.985976833369607 -0.0015998470756354978 1.988944803638891 1.974835041235717 2.0003627598513134 -0.004319428389228181 -0.009646696950111663 0.009276891028858614 3.9561734290908945 0.0054169425289126525 1.9902716609357478 5.953259518021921 1.9757341616408235 0.006716024702928184 5.944687321538283 1.9754294288645122 1.9936975239444372 3.972650425535051 0.00903961212230355 3.995048284593948 0.007330251705181098 -0.005561373167685302 5.974250368715192 1.9835786499060304 1.984061937043462 3.990451898551249 1.9748532934592982 1.9771959266771928 5.988328388120834 0.005329649285698414 0.008637269628579742 3.977200784231328 3.9651773303409743 -0.005930385514000038 5.97463683971015 5.9390346872526925 1.9697958403774405 3.9887544417582017 5.943700907889961 1.9779466485688353 5.981298107742335 3.956737660872034 3.9522880861929224 -0.001199091731788312 0.00014681136358758287 3.9475679024598476 2.0025474716564844 1.979786155275841 5.927375484259023 -0.002327555294066922 1.9843968256674294 5.940799597915496 1.9947299649391799 -0.0035298213256084792 3.9492717078524016 0.00997920484926408 3.9646250021839093 3.9599317999987367 1.9926698443993243 5.938906128112685 5.924146427835034 0.005961334936594177 5.942597045150771 5.927754019504597 1.998455005699613 3.9592429769522823 3.956139305368547 3.983763648971162 -0.007332632429996031 3.94429599298919 5.970831647880948 1.987147356403616 5.922471984715198 3.9932135393365726 1.9855641744016852 5.937007896860245 5.981844880874831 0.0071405872949247065 3.960151620256649 3.994362635847247 3.96525430710999 3.949918471427125 5.9744519367495235 5.9427081456421345 5.939170388567144 3.987567253650488 5.9474378522744695 5.933168581308695 5.985419142396985 3.9624521940028132
-0.008880358473360262 0.00026637866038630353 0.001706588586270083 0.0055763002701349675 1.9933765056450805 2.0142382874182863 2.0070388424795924 -0.009977164584047241 2.021000454134358 2.01417490213464 1.9916867663114253 -0.004780373670426495 0.003867304647777057 0.007344669449325971 4.0359648641058055 0.007225119990297179 1.987686272333455 6.064492120086801 2.010958299575939 -0.004630335087618547 6.054161923543206 2.0163941894076176 1.992568543864933 4.0308041787335025 -0.00963456311421305 3.9628286772678756 0.009737263320627047 0.004278907818795652 5.966177533424828 2.01564158945749 2.0166397070885758 3.970091507490215 2.0193067030738896 2.0110922912514946 5.967060113323698 0.003986051761443241 -0.005350038877879133 3.9761596454676296 4.0410132211273435 -0.009083351850100427 5.952503963755239 6.0634402453164205 2.0056395521672017 3.970929958394142 6.049732174796239 2.009438657459157 5.954197714815708 4.02731959282369 4.012080647351651 -0.009845579944579309 -0.00963456311421305 4.026434605888732 1.9785459539626093 2.0138884648401887 6.029342974441612 0.0008873939710459389 2.0095413576655714 6.032842002567951 1.984208907531906 0.001116062399389603 4.008050466595264 0.007157722979837992 4.028794303600166 4.019874630204037 1.977636896666773 6.051350505392623 6.019801483389461 0.0027408117586735325 6.0591404765181975 6.024533716338131 1.9841671855730505 4.029838154916921 4.0211656038924755 3.975804206471994 0.009048048654145616 4.0204065851794475 5.9677060013405985 2.0239595038316613 6.033937203987912 3.968591121662136 2.0253058393501195 6.024905202241018 5.954467302857544 -0.0009563956722303428 4.007013836386772 3.9682244498314234 4.045294535982227 4.025652319160187 5.961621014110569 6.060721096882538 6.031164298414734 3.9629618665980684 6.060923287913915 6.0194821499351425 5.956957782863084 4.034584830082117
-0.0016557476896527721 0.006526670820895712 -0.0037246362691756353 0.008472970388780822 1.984376192519322 1.9734004958150273 1.968410167802319 -0.009655874747830832 1.96962411743055 1.978144053739374 1.9774714062404524 -0.008137044655591653 0.0036291123640033603 -0.0037047354555980777 3.93524021100658 -0.0012720600038774665 1.9755816249831275 5.910450088792079 1.9621167345165524 0.005028537574777193 5.902137120944461 1.9725368005057613 1.9888427311186687 3.9305213300910693 0.002693774125858164 3.9623323825785235 0.0026921820607719595 0.0033735859176675237 5.932973829599159 1.9718092267613658 1.9632749618667662 3.949334763214749 1.968698331582922 1.9696185452027484 5.938948849867684 -0.007879926144169611 -0.005593720680379823 3.951257181806341 3.929320913016072 -0.0023482960021517685 5.932020182612522 5.909518730716649 1.9634867065232313 3.966427970012785 5.899393992800931 1.9741010044529574 5.94340504004397 3.9302658036447338 3.937046408846879 0.003121243601504096 0.002426307191375793 3.938312100590412 1.9835268257958316 1.9698135731758084 5.908955935708676 0.0012219099536620217 1.9778558899587708 5.915891767256726 1.9828685068826861 -0.009249898150848661 3.94735662234514 0.00742141139934269 3.927926264000556 3.9384020522677825 1.9787386900490713 5.894939394689731 5.921428173594002 0.007503402751282227 5.894854219207618 5.908699613229796 1.9820087917361355 3.9344513427563657 3.9430230211804913 3.9511863349100054 -0.0009432985635762188 3.933519188648393 5.932817807220711 1.9645454298055574 5.9199109355668496 3.9488674921119484 1.965443354514177 5.9023257806571765 5.941844020226948 -0.001057131217239847 3.948687588757207 3.96297557687335 3.930826210555078 3.95053836441992 5.936856080311868 5.911822448896387 5.908467171727211 3.951729229104401 5.898344821909122 5.902541505476358 5.934469574747648 3.9434727795673443
-0.005242131175614625 0.003641354086804927 0.006195819150730201 0.005645675178308158 1.978306690423343 1.970203495322382 1.9653720016963832 -0.0024685543289768466 1.9708293037953089 1.9695193621303155 1.980898987737521 0.005404494582948351 0.008364868165207942 0.009554219532521498 3.957820860167246 0.009332743234168212 1.9925560498465784 5.935046178770871 1.9685593687801577 0.0015432405415506593 5.92854297258684 1.962800196851092 1.9765664069117275 3.9503820939613443 -0.007966053193795973 3.960973547688289 0.0019113168096324563 -0.002388948969070505 5.954971952075745 1.9685010440610184 1.9673731701003652 3.975337980206042 1.9733207151088132 1.9577275226297335 5.950407648717154 0.001454965290961449 0.003794259431575523 3.975151971642301 3.962631861324358 0.0025505242045239704 5.949356227428886 5.940002991725831 1.9592691868275236 3.960640939154819 5.931519897778584 1.9609432639011974 5.943344840498137 3.963112646171317 3.9243030627872746 0.0056969063505251105 -0.005914441789477093 3.9313950333658614 1.9827472507967323 1.9856697921287394 5.891639188809267 0.009533727063634716 1.9833714829258988 5.896457283513302 1.9878215013618517 -0.009020627169584931 3.93111838503589 -0.0007408815674451582 3.9620691066018514 3.9414938796676435 1.99171507045034 5.9381334480258525 5.903062952041768 0.006729411513666767 5.940060528273091 5.906426869626721 1.9761612865652731 3.957813766620323 3.9303128733742634 3.9683870923940217 -0.008702993901839828 3.938410551272063 5.947428359009768 1.9707118661851497 5.897711264974797 3.969114575039503 1.9766460122716334 5.896899447938128 5.943604937218623 -0.00011743761015886018 3.937331543967986 3.959432671662379 3.9513602152647476 3.927962544827326 5.950064793949241 5.929113609028148 5.900865528839601 3.957762535448107 5.924794427124319 5.902508867209945 5.954672446761245 3.9513641561241495
0.007803514421633405 -0.0035424728604913722 0.0015827400405350257 -0.0076350875848982015 1.9798566787810314 1.993916384441955 1.975051791686319 0.007932589193710851 2.004421024581697 1.9872501446889308 1.9847497145005766 -0.0025460785833569407 -0.005284982283536895 0.006473414636201186 4.006837454989728 -0.009226485079657934 1.9871069031735764 6.000405180138815 1.9883236690127943 -0.008666898720224615 6.005395808978712 1.9881371402263164 1.9902928463282687 4.014444996129366 -0.002267465965580014 3.971068789339705 0.0016866294912315067 0.0021596413084177574 5.955241602572399 1.9985843263516583 1.977731667289512 3.966856544338738 1.9949261584210731 1.9887770047976516 5.951221395646963 0.007557170496875841 -0.008259211330370242 3.969899245978076 3.9993794516957895 0.007254946640304259 5.951629083036817 6.01466715541208 1.9907666451867478 3.9696788744159934 6.014589238324057 1.9859554617616906 5.939395313176013 4.0150242585211275 3.974591586167868 -0.00859291683866803 -0.0015803789166555602 3.9767260421549047 1.9832393822590122 2.0004173455234167 5.940169761808478 -0.0002872700720016332 1.99913604229816 5.94996842590826 1.9761347605057002 0.008785741955491044 3.9682275702714147 0.004600256358491906 4.00715227150699 3.966102558779896 1.979820474881546 6.001413380035347 5.955232158076881 0.006628461770952753 6.009750508453739 5.9579018021432635 1.979333296321083 4.006196803377099 3.9708161490846026 3.9658184368730667 -0.0012411641193056865 3.964384447636938 5.94995347212369 1.9965773710541126 5.95196672375158 3.9563306540840815 2.0128195422209556 5.954881924701427 5.940398003783494 0.0029364510647619 3.962378279380686 3.969997626139721 4.00050964299276 3.9657145474223707 5.952125706092798 6.008614020826424 5.942994453009612 3.9706280462155377 6.008767493878588 5.955375399592236 5.939238691958675 3.9975062934180796
-0.00011698444195384116 0.0016586150331811724 0.00534602874463033 -0.010142390864737819 1.9829592060780035 1.9718352676694748 2.0270895836468377 -0.00039181775421526254 1.9748392037851252 2.017953579488223 1.9706045272390564 0.009597531820021297 -0.002758749545527912 -0.006613627286897294 3.9569106101255613 0.00040864428353739034 1.9780658910984683 5.93163843831184 2.012565083788637 0.004566399552705074 5.940044491603195 2.0215127910715034 1.978250181657711 3.9482401399448595 -0.005174558398204836 3.9614377477765146 -0.0010208094455424223 0.006067165715578666 5.940840947324442 1.9882034743834 2.0267907124355444 3.95713015627005 1.9793951869149167 2.0314412446348604 5.928613669350362 -0.006687343510594235 -0.005029529740714116 3.952373056051694 3.9520749861037023 6.570359068640393e-05 5.933974120834412 5.934809838457411 2.029111972218697 3.9617189911951844 5.938161522845719 2.018480810740316 5.929033531320115 3.958995497234903 4.048546286287268 0.0020360100479774683 -0.006486226422029754 4.044224272041384 1.9738191956028839 1.9824680316744576 6.07599723968288 -0.0049397882509961 1.9744009127594488 6.062314066290785 1.9831835598022987 -0.008827517787708685 4.042665814920834 0.0069141010247924335 3.95877274603721 4.04943007970833 1.982236466580453 5.929664926801345 6.070474933012018 -0.00795734584276436 5.938354627301273 6.076470786293803 1.9866089604143031 3.9569194240218732 4.036203626397836 3.9516623355036593 0.008508614993889309 4.039786875880148 5.946215020284609 1.983158720639966 6.066080003805738 3.9610651603415246 1.974836799995222 6.06756394343929 5.933039046562082 0.006366036926871699 4.045426166992964 3.95016477439399 3.9632918710551532 4.03608503942928 5.9399194945282305 5.928911739298354 6.063545607984505 3.957816037655752 5.941805668338911 6.056268534684335 5.928979846678944 3.9486511880182995
-0.001531565973259405 -0.009215871312116701 0.0035677704992585512 -0.0073682042422285885 2.0048728099416815 1.997495780541933 1.9818190916380625 -0.008071007695646733 1.9823333576353697 1.9804086710089424 2.004117055543143 -0.006539441722387329 -0.005075267861099526 0.0005960992761297737 3.982720580695703 -0.009673977216114146 1.999925908008147 5.967292319192987 1.9918380522845074 0.0022022779447863103 5.965259323815176 1.9853844552761792 1.9867395180990368 3.9858125949759238 -0.001217069450725258 3.9991706743131528 -0.0060765220961061985 -0.004398137593194373 5.983869976450954 1.9897143984703547 1.9811202996198807 3.996401981712986 1.9937394725865634 1.9921790242796018 5.978692015847802 0.007606483495271042 -0.005870334324954984 3.9878953321506656 3.9722106203763223 -0.006001107113661785 5.978403994797828 5.973352795548148 1.9842973563271133 3.994061710396067 5.98208889920599 1.9815703826534052 5.978614996291264 3.9718688460941807 3.980776639180142 -0.00018693288201647007 0.0038405480953340866 3.9840563886294262 1.9897906157398464 1.9974773279398454 5.973161851230894 -0.0014256640830183148 1.9821624704942988 5.964103228180044 1.98609528160007 -0.0028473167308002245 3.987473329163796 0.008501835840036623 3.9792474800680235 3.9796004863688275 1.985398094155983 5.965465511586328 5.95835403919923 0.002989321538168959 5.978286860888925 5.973480359188665 1.991568483836621 3.978488516521296 3.9691619295966545 3.9939100781441312 -0.006039616891931273 3.9809194462745574 5.975264645581818 1.9965442681038579 5.962973608017474 3.9868611841467207 1.9811002424436988 5.960760900341072 5.992109464426529 0.0037916085854499465 3.9706886818476304 3.998106039401411 3.9755144384370253 3.981728953905264 5.990531365804528 5.963264035928589 5.9762827478448175 3.987162844076498 5.980335099720634 5.961723644797809 5.992924588066567 3.9905164039341328
-0.004378326800015519 -0.008534564559450541 -0.005655338783353379 -0.0062065955090799705 1.9838722226465972 1.9764663463183825 1.9727344572614853 -0.001158828886743238 1.978124875546432 1.972486986616267 2.0012697262754995 -0.0028752599003725103 -0.0013269820174684718 -0.0060487536552388315 3.977118982331126 0.00702753178408288 1.984626532209426 5.946661702809412 1.9543637277297534 0.004331529466464629 5.957291042926624 1.9568677816622986 1.9860304522159526 3.9664008065976826 -0.009190520404307938 3.9927786392174855 -0.00924207678872841 -0.0076406561711140405 5.988921281356156 1.9925233839523526 1.967045805122045 3.9861643516839123 1.9934228445667035 1.9650192426267477 5.969429002169492 0.005173881470380658 0.0035391474966792115 3.9890491296860233 3.9726764083443715 -0.005663270534802683 5.977464659562782 5.9535226678130595 1.9680555170815413 3.993822457708214 5.949165756741958 1.9614237796947784 5.983001022074396 3.977781283577143 3.9199834039412136 0.00595436581299212 -0.0008169703992782581 3.9196336137022993 1.9838793612229018 1.9858083631753725 5.881803771208458 -0.00802693246669512 1.994012966874532 5.890677814729938 1.9882497562714678 -0.006887139783430209 3.925833070635075 0.0044076742803779425 3.96785786933892 3.934761843241556 1.9875025852849435 5.950085046734931 5.883623314990928 -0.007570063583215238 5.959629323253878 5.898438240347936 1.993611620251197 3.974573683291045 3.92219001719441 3.9807739333989653 0.008828039363074771 3.9203284351292584 5.9876482352485425 1.9843965114173963 5.890292331609501 3.9922464186952378 1.9878309597949444 5.884967746861585 5.986494958587814 -0.003975393826390903 3.919635200052589 3.996139322306556 3.9620653112554933 3.927665305219864 5.982554464467801 5.95477905724263 5.892228472138277 3.989325154636459 5.959124070686558 5.888888411602975 5.986145961524044 3.9683290153750077
-0.00039508868786520857 -0.00978360180472641 -0.004047675673671274 0.009741554213447584 1.976116200786504 1.993851557447602 1.991016121764007 -0.004873553834449752 1.9887883927770083 1.9851564329114522 1.961670076454501 0.0049370218967574155 0.006605438584670133 0.007211558579708325 3.9830286921062448 0.009166374898784376 1.9656296901917203 5.961165557326469 1.9922077346338334 -0.003873931853104043 5.954392721727462 1.9954565060732068 1.9757179386955235 3.9703152458752404 0.0024744610792200514 3.943054126412541 0.0077764243342465355 0.008684017625246131 5.91175091071528 1.993100254260035 1.9844344837027024 3.930872225203364 1.9911716185166608 1.990875698676151 5.914538745352143 0.0004744237657497886 -0.001450245223730123 3.947952274121135 3.9675964327561357 -0.005414619065622587 5.912065077623702 5.958062762430403 1.9845677666335484 3.9435539374032142 5.964958567400131 1.9919673493478431 5.903411207328053 3.978487552248131 3.9678272978327795 -0.00958923086390919 0.001759652027479985 3.973652872601845 1.9608822791311071 1.997088428625293 5.964706281852457 0.006760141986545064 1.9796474051031467 5.955298728316904 1.9790404917573297 0.006587984867535526 3.9796989988874287 0.0007251226118650615 3.981778371278783 3.970165302578039 1.9766088716201673 5.965352862737217 5.966709492569043 0.003181336623171659 5.964119202276112 5.960773642041719 1.9638184703636152 3.9701256350390963 3.9820060629523124 3.9392039950828024 -0.0039381932661905535 3.980156762286822 5.9057634923873294 1.9857625529064902 5.963138620713458 3.9411191438629363 1.98085488498855 5.950805189505521 5.9071145687637046 0.0029901390854698215 3.9673171732819825 3.936055979192342 3.9820592174544944 3.964273086343551 5.911870706682885 5.968174811457572 5.959098085196797 3.939340451416764 5.9570845609200855 5.96636121157713 5.9036293787922345 3.9710586155550187
0.0030236514088534203 -0.005360431186187445 -0.008422635527394189 -0.007128358512675511 1.994882144895771 1.9790903917271276 1.965777828147164 -0.005867126868545396 1.984446102146088 1.9796199044510825 1.9850409188166822 -0.0039583633197870305 -0.00785693025469952 -0.007602795618982723 3.9792755318078252 0.009890794134971726 1.9907003319272427 5.950320949385714 1.9726866709837874 -0.004061433404241831 5.968251996902698 1.9638265776933634 1.9900260490083281 3.9675129534673728 0.004243182942478922 3.9711754820409384 -0.007175566184944885 -0.0025051538084281265 5.962543015736255 1.9901511493398423 1.9746512969447307 3.968325712224944 1.9921181356843993 1.9731689760354725 5.9484318557004014 -0.0019551844264899167 0.008624841723614675 3.9798923787254785 3.979674436638502 -0.006553998500064791 5.9478984090037565 5.953500386113056 1.9721123109711767 3.9769214425506596 5.959790021648413 1.9762201652531497 5.967569059243868 3.9825053233855883 3.940314253089373 -0.006970212810573108 0.0076130239479744195 3.9370380406338783 1.984976401664581 1.9891133673444537 5.906901692815957 0.0006624810008468852 1.9766804400577762 5.915070193707634 1.99402611243862 -0.00665156102275483 3.9378775504057355 -0.009962392437913612 3.9697018158715958 3.9412316555204745 1.9783712615195574 5.950857543260509 5.917978186319427 6.923791932841556e-05 5.956365105025269 5.918817696091285 1.979458611570829 3.97089302280186 3.940873664005765 3.9620274219496716 -0.0015987665008561412 3.9315934224321443 5.962565045983314 1.9775097215006414 5.904141617577275 3.9707356638942954 1.9915374813154862 5.908616118113873 5.965435272457292 -0.007646856113100805 3.933623352339727 3.9633216989643905 3.9706278730426137 3.9474567739037294 5.9536333543899485 5.968764986941358 5.9034759893982764 3.966214742479965 5.967063150356047 5.907634985325208 5.9588812739572266 3.972631838730449
-0.008934941989436425 0.003681011611703561 -0.009409680363207657 -0.009237915725461282 1.9962756569146807 1.9686255262707952 2.016667141200469 0.006849114930136698 1.9682064523629605 2.0114855746284532 1.996198521869026 0.005092503426517521 -0.009261771925148278 0.0021613716916418836 3.919312780790282 -0.0023625589756688875 1.9842728076454965 5.902492179283458 2.0161749082802607 0.009700725999389015 5.894742095211809 2.0157804857787687 1.9921381966822993 3.924973856976006 -0.007991826895143831 3.971087095764314 0.0016182455454345967 -0.00952657574167394 5.954648988659138 1.9674470300062579 2.0134417830027873 3.980746471017579 1.9561845181340267 2.011337666190394 5.965067786269106 -0.0026082778324449515 0.0069946377482273765 3.977398650994837 3.9350475348971687 0.008189038145889668 5.951975503880882 5.898700633946538 1.998537224645008 3.972852454541152 5.900919260517429 2.0140787435344296 5.971270398187725 3.9196491532058686 4.01371096774507 0.002400728895168082 0.008207327898983032 4.021182729487038 1.9944959844180308 1.9688235327281975 6.024578666801631 0.002238506737296506 1.9642415519749818 6.016363386836085 1.9823778301836927 -0.006045161000684916 4.016427393682764 -0.006267023657773983 3.920764032937907 4.0101508275451145 1.977557287433607 5.885206772196916 6.024399745303978 0.00942001804973869 5.894288827417756 6.023046303575069 1.9895505942229161 3.935539767817377 4.019348982937765 3.969724906762187 0.008330584930699181 4.015446108668972 5.95964765770022 1.9570878728955077 6.018352993889981 3.983334868683618 1.9566918599807035 6.0222407592323055 5.964760041293143 -0.00421220965806735 4.023841900545482 3.975015416646106 3.9306691270479486 4.022246715993078 5.959420228596538 5.885812719668966 6.0217859010249395 3.9816426689191537 5.8964295237363356 6.013753518590328 5.958057244387754 3.93656717481723